<?xml version="1.0" encoding="ISO-8859-1"?>
<modeling>
 <generator>
  <i name="program" type="string">vasp </i>
  <i name="version" type="string">6.2.1  </i>
  <i name="subversion" type="string">16May21 (build Jul 28 2021 23:24:15) complex                          parallel </i>
  <i name="platform" type="string">IFC19_CrayMPICH </i>
  <i name="date" type="string">2022 03 24 </i>
  <i name="time" type="string">09:07:56 </i>
 </generator>
 <incar>
  <i type="int" name="ISTART">     1</i>
  <i type="string" name="PREC">Accurate</i>
  <i type="string" name="ALGO">Fast</i>
  <i type="int" name="ISPIN">     2</i>
  <i name="AMIN">      0.01000000</i>
  <i type="int" name="NELM">   120</i>
  <i type="int" name="NELMIN">     8</i>
  <i type="int" name="IBRION">     2</i>
  <i name="EDIFF">      0.00010000</i>
  <i name="EDIFFG">     -0.05000000</i>
  <i type="int" name="NSW">   300</i>
  <i type="int" name="ISIF">     0</i>
  <i type="int" name="ISYM">     0</i>
  <i name="SYMPREC">      0.00000000</i>
  <i name="ENCUT">    500.00000000</i>
  <v name="MAGMOM">      0.02000000      0.02000000      0.02000000      0.02000000      0.01800000      0.01800000      0.01800000      0.01800000      0.02100000      0.02100000      0.02100000      0.02100000      0.02100000      0.02100000      0.02500000      0.02100000      0.00600000      0.00600000      0.00600000      0.00600000
      0.00800000      0.00800000      0.00800000      0.00800000      0.00200000      0.00200000      0.00200000      0.00100000      0.00600000      0.00600000      0.00700000      0.00600000      2.39700000      2.39800000      2.39800000      2.39900000      2.40200000      2.40200000      2.40300000      2.40400000
      2.55800000      2.55800000      2.55900000      2.55800000      2.56500000      2.56500000      2.56300000      2.56300000      2.43400000      2.47900000      2.45400000      2.46900000      2.50200000      2.51300000      2.45900000      2.45600000      2.21400000      2.22600000      1.93100000      1.94100000
      2.38000000      2.36500000      2.39200000      2.38600000      0.00800000      0.00000000      0.00100000      0.01100000     -0.00100000      0.00100000      0.00700000      0.00200000      0.00100000      0.01100000     -0.00200000      0.00200000     -0.00300000     -0.00300000     -0.00300000     -0.00200000
      0.04700000      0.04800000      0.05100000      0.05000000      0.12100000      0.12100000      0.12300000      0.12100000      0.22800000      0.22900000      0.23000000      0.22900000      0.43500000      0.43600000      0.43700000      0.43600000      0.20300000      0.20400000      0.20400000      0.20300000
      0.28700000      0.28800000      0.28600000      0.28900000      0.15000000      0.15100000      0.15200000      0.15100000      0.03700000      0.03800000      0.03900000      0.03900000      0.43800000      0.43800000      0.43800000      0.43800000      0.23100000      0.23100000      0.23100000      0.23100000
      0.29200000      0.29200000      0.29000000      0.29000000      0.19700000      0.19700000      0.19700000      0.19800000      0.39300000      0.40200000      0.35000000      0.32900000      0.10400000      0.10100000      0.09100000      0.09100000      0.24500000      0.24900000      0.26000000      0.26100000
      0.26700000      0.26400000      0.24500000      0.24500000      0.24300000      0.23700000      0.25300000      0.25200000      0.55400000      0.53000000      0.55700000      0.53300000      0.12100000      0.11800000      0.10200000      0.10600000      0.38900000      0.37300000      0.30800000      0.27000000
      0.28000000      0.28000000      0.26800000      0.27500000      0.23300000      0.24400000      0.19400000      0.19900000      0.49400000      0.50000000      0.50700000      0.51600000      0.24800000      0.24400000      0.23900000      0.24100000      0.41900000      0.59000000      0.01700000      0.35000000
      0.60700000      0.01000000      0.32100000     -0.59500000      0.05700000      0.30700000      0.64100000      0.26900000      0.60900000      0.60600000      0.62600000      0.63400000</v>
  <i type="logical" name="LREAL"> T  </i>
  <i type="int" name="ISMEAR">     0</i>
  <i name="SIGMA">      0.20000000</i>
  <i type="int" name="LMAXMIX">     4</i>
  <i type="logical" name="LWAVE"> T  </i>
  <i type="logical" name="LCHARG"> F  </i>
  <i type="logical" name="LVTOT"> F  </i>
  <i type="int" name="LORBIT">    11</i>
  <i type="logical" name="LASPH"> T  </i>
  <i type="string" name="GGA">Pe</i>
  <i type="logical" name="LDAU"> T  </i>
  <i type="int" name="LDAUTYPE">     2</i>
  <v type="int" name="LDAUL">     0     0     2     0     0</v>
  <v name="LDAUU">      0.00000000      0.00000000      3.32000000      0.00000000      0.00000000</v>
  <v name="LDAUJ">      0.00000000      0.00000000      0.00000000      0.00000000      0.00000000</v>
  <i type="int" name="LDAUPRINT">     0</i>
 </incar>
 <primitive_cell>
  <structure name="primitive_cell" >
   <crystal>
    <varray name="basis" >
     <v>      11.10571100       0.00000000      -0.00958600 </v>
     <v>       0.00000000      15.87095000       0.00000000 </v>
     <v>       0.00000000       0.00000000      55.52857600 </v>
    </varray>
    <i name="volume">   9787.36596561 </i>
    <varray name="rec_basis" >
     <v>       0.09004376       0.00000000       0.00000000 </v>
     <v>       0.00000000       0.06300820       0.00000000 </v>
     <v>       0.00001554       0.00000000       0.01800875 </v>
    </varray>
   </crystal>
   <varray name="positions" >
    <v>       0.12533700       0.24770700       0.42255300 </v>
    <v>       0.12533900       0.74771100       0.42255400 </v>
    <v>       0.62533600       0.24770600       0.42255200 </v>
    <v>       0.62533900       0.74771000       0.42255400 </v>
    <v>       0.37481100       0.00166700       0.47540500 </v>
    <v>       0.37480700       0.50167600       0.47540200 </v>
    <v>       0.87480000       0.00165700       0.47541200 </v>
    <v>       0.87479900       0.50165900       0.47540700 </v>
    <v>       0.12523400       0.25174800       0.52449500 </v>
    <v>       0.12522000       0.75178300       0.52449900 </v>
    <v>       0.62523700       0.25176400       0.52448900 </v>
    <v>       0.62524600       0.75180100       0.52450100 </v>
    <v>       0.37416900       0.99853700       0.57755100 </v>
    <v>       0.37463300       0.49946400       0.57734100 </v>
    <v>       0.87407700       0.99846100       0.57749700 </v>
    <v>       0.87429100       0.49933900       0.57730000 </v>
    <v>       0.37480100       0.25003300       0.47523700 </v>
    <v>       0.37480700       0.75005900       0.47524300 </v>
    <v>       0.87480800       0.25005400       0.47524400 </v>
    <v>       0.87480300       0.75006400       0.47524500 </v>
    <v>       0.12497600       0.49971300       0.42744300 </v>
    <v>       0.12498100       0.99971200       0.42744400 </v>
    <v>       0.62498200       0.49971500       0.42744300 </v>
    <v>       0.62497600       0.99971400       0.42744400 </v>
    <v>       0.37483400       0.24905600       0.57375200 </v>
    <v>       0.37487200       0.74916100       0.57382600 </v>
    <v>       0.87457400       0.24907400       0.57377600 </v>
    <v>       0.87461800       0.74921500       0.57374700 </v>
    <v>       0.12518900       0.99997800       0.52468800 </v>
    <v>       0.12519800       0.50001000       0.52467100 </v>
    <v>       0.62524400       0.99995600       0.52469000 </v>
    <v>       0.62524400       0.49997300       0.52468400 </v>
    <v>       0.36592200       0.37496300       0.42608100 </v>
    <v>       0.36591800       0.87496300       0.42607900 </v>
    <v>       0.86592500       0.37496300       0.42608000 </v>
    <v>       0.86591700       0.87496400       0.42607800 </v>
    <v>       0.38410000       0.12485200       0.42605900 </v>
    <v>       0.38408200       0.62485600       0.42606100 </v>
    <v>       0.88408300       0.12485400       0.42606200 </v>
    <v>       0.88408400       0.62485400       0.42606000 </v>
    <v>       0.12871500       0.12561600       0.47413500 </v>
    <v>       0.12871400       0.62562800       0.47413100 </v>
    <v>       0.62872500       0.12562100       0.47413100 </v>
    <v>       0.62873500       0.62562800       0.47412800 </v>
    <v>       0.11992300       0.37477600       0.47381600 </v>
    <v>       0.11989400       0.87478200       0.47381100 </v>
    <v>       0.61991200       0.37477800       0.47381700 </v>
    <v>       0.61991100       0.87478000       0.47381300 </v>
    <v>       0.37090900       0.37565300       0.52625300 </v>
    <v>       0.37105500       0.87555400       0.52626400 </v>
    <v>       0.87102200       0.37556700       0.52625400 </v>
    <v>       0.87105000       0.87558500       0.52624900 </v>
    <v>       0.38010900       0.12478500       0.52638700 </v>
    <v>       0.38023000       0.62478600       0.52636700 </v>
    <v>       0.88052100       0.12476700       0.52638600 </v>
    <v>       0.88046300       0.62477400       0.52637900 </v>
    <v>       0.12951200       0.12508600       0.57467600 </v>
    <v>       0.12995300       0.62478100       0.57456600 </v>
    <v>       0.62833400       0.12500500       0.57391100 </v>
    <v>       0.62832600       0.62486400       0.57392100 </v>
    <v>       0.12117600       0.37493000       0.57499000 </v>
    <v>       0.12082200       0.87475800       0.57494000 </v>
    <v>       0.62106900       0.37493900       0.57504400 </v>
    <v>       0.62087600       0.87473300       0.57497700 </v>
    <v>       0.34270600       0.87357900       0.60935800 </v>
    <v>       0.45912700       0.99704200       0.63164000 </v>
    <v>       0.57964900       0.12518800       0.60799600 </v>
    <v>       0.33699800       0.37316200       0.60609400 </v>
    <v>       0.45951600       0.49706100       0.63163800 </v>
    <v>       0.57968700       0.62521400       0.60799900 </v>
    <v>       0.84228100       0.87364900       0.60934800 </v>
    <v>       0.95946500       0.99721700       0.63170500 </v>
    <v>       0.06964800       0.12304700       0.61032100 </v>
    <v>       0.83642300       0.37323800       0.60604300 </v>
    <v>       0.95958700       0.49718600       0.63172800 </v>
    <v>       0.06975900       0.62313100       0.61031800 </v>
    <v>       0.46344800       0.25018600       0.62685800 </v>
    <v>       0.46257900       0.75033400       0.62698100 </v>
    <v>       0.96308400       0.24983100       0.62710500 </v>
    <v>       0.96297300       0.75024400       0.62703400 </v>
    <v>       0.12503200       0.25043700       0.47463600 </v>
    <v>       0.12504500       0.75039700       0.47464100 </v>
    <v>       0.62504900       0.25034900       0.47464500 </v>
    <v>       0.62504300       0.75035200       0.47464700 </v>
    <v>       0.37509500       0.24935300       0.42519800 </v>
    <v>       0.37509500       0.74935000       0.42519800 </v>
    <v>       0.87509600       0.24934100       0.42519900 </v>
    <v>       0.87509700       0.74934000       0.42519900 </v>
    <v>       0.01476200       0.12492800       0.45139100 </v>
    <v>       0.01488000       0.62495300       0.45140500 </v>
    <v>       0.51480500       0.12492800       0.45139600 </v>
    <v>       0.51475000       0.62492900       0.45139200 </v>
    <v>       0.48513200       0.12486500       0.40328000 </v>
    <v>       0.48495000       0.62486900       0.40325000 </v>
    <v>       0.98476300       0.12481700       0.40320800 </v>
    <v>       0.98513800       0.62483600       0.40327100 </v>
    <v>       0.49299000       0.37496300       0.44585100 </v>
    <v>       0.49309700       0.87495800       0.44583600 </v>
    <v>       0.99297800       0.37496400       0.44585200 </v>
    <v>       0.99309500       0.87495700       0.44583800 </v>
    <v>       0.01476700       0.37502000       0.49682900 </v>
    <v>       0.01471100       0.87502200       0.49683800 </v>
    <v>       0.51486500       0.37497200       0.49682800 </v>
    <v>       0.51488400       0.87502100       0.49681500 </v>
    <v>       0.37498100       0.00032600       0.42469800 </v>
    <v>       0.37498200       0.50032000       0.42470000 </v>
    <v>       0.87498300       0.00032900       0.42469800 </v>
    <v>       0.87498000       0.50033000       0.42469900 </v>
    <v>       0.12500300       0.50016400       0.47466500 </v>
    <v>       0.12501700       0.00019400       0.47466400 </v>
    <v>       0.62501000       0.50023200       0.47466600 </v>
    <v>       0.62501200       0.00022700       0.47466500 </v>
    <v>       0.26547200       0.37512900       0.40328600 </v>
    <v>       0.26534700       0.87511400       0.40331900 </v>
    <v>       0.76530000       0.37510200       0.40333100 </v>
    <v>       0.76530500       0.87509900       0.40333300 </v>
    <v>       0.23489200       0.37489600       0.45135400 </v>
    <v>       0.23491700       0.87489600       0.45135000 </v>
    <v>       0.73509400       0.37489800       0.45131500 </v>
    <v>       0.73502900       0.87489500       0.45132700 </v>
    <v>       0.23534600       0.12496700       0.49698200 </v>
    <v>       0.23537000       0.62497200       0.49698900 </v>
    <v>       0.73538100       0.12496700       0.49698300 </v>
    <v>       0.73531300       0.62497100       0.49697100 </v>
    <v>       0.25728900       0.12430800       0.44631800 </v>
    <v>       0.25730700       0.62429500       0.44631800 </v>
    <v>       0.75732400       0.12437800       0.44630900 </v>
    <v>       0.75733900       0.62428100       0.44631400 </v>
    <v>       0.12450000       0.25082200       0.57492300 </v>
    <v>       0.12487000       0.75041100       0.57499000 </v>
    <v>       0.62507000       0.25105100       0.57477100 </v>
    <v>       0.62563700       0.74949500       0.57475300 </v>
    <v>       0.37532300       0.25090400       0.52530600 </v>
    <v>       0.37530200       0.75089300       0.52530700 </v>
    <v>       0.87529200       0.25065600       0.52529300 </v>
    <v>       0.87529100       0.75072900       0.52530100 </v>
    <v>       0.00783600       0.12520300       0.55259000 </v>
    <v>       0.00786300       0.62524400       0.55262100 </v>
    <v>       0.50762600       0.12565000       0.55262400 </v>
    <v>       0.50767100       0.62576400       0.55260600 </v>
    <v>       0.48276000       0.12496600       0.50327700 </v>
    <v>       0.48285200       0.62498800       0.50326300 </v>
    <v>       0.98242800       0.12492200       0.50330800 </v>
    <v>       0.98248300       0.62494000       0.50330400 </v>
    <v>       0.48450400       0.37504600       0.54831400 </v>
    <v>       0.48665700       0.87493000       0.54834500 </v>
    <v>       0.98584300       0.37497200       0.54833000 </v>
    <v>       0.98710400       0.87489800       0.54829000 </v>
    <v>       0.01904400       0.37417500       0.59719800 </v>
    <v>       0.01680900       0.87444800       0.59644500 </v>
    <v>       0.51845900       0.37432000       0.59715600 </v>
    <v>       0.51608500       0.87473500       0.59636600 </v>
    <v>       0.37518600       0.00057600       0.52535300 </v>
    <v>       0.37520200       0.50057600       0.52534800 </v>
    <v>       0.87514800       0.00064600       0.52535300 </v>
    <v>       0.87524400       0.50069900       0.52535900 </v>
    <v>       0.12469300       0.49884900       0.57437500 </v>
    <v>       0.12524600       0.00063500       0.57430500 </v>
    <v>       0.62486100       0.49920000       0.57428600 </v>
    <v>       0.62509700       0.00114200       0.57419100 </v>
    <v>       0.26830500       0.37490600       0.50359200 </v>
    <v>       0.26741500       0.87498900       0.50341600 </v>
    <v>       0.76668300       0.37500500       0.50324600 </v>
    <v>       0.76718600       0.87493900       0.50336200 </v>
    <v>       0.24186100       0.37418300       0.55200600 </v>
    <v>       0.24212100       0.87426400       0.55273800 </v>
    <v>       0.74228300       0.37454300       0.55194900 </v>
    <v>       0.74234600       0.87397200       0.55262600 </v>
    <v>       0.23092200       0.12588500       0.59620100 </v>
    <v>       0.23095000       0.62579300       0.59622000 </v>
    <v>       0.73065000       0.12575300       0.59607200 </v>
    <v>       0.73066700       0.62577200       0.59607800 </v>
    <v>       0.26279300       0.12487200       0.54845700 </v>
    <v>       0.26255100       0.62488100       0.54851900 </v>
    <v>       0.76617200       0.12487600       0.54814500 </v>
    <v>       0.76619300       0.62487500       0.54813600 </v>
    <v>       0.26902500       0.86889800       0.60179900 </v>
    <v>       0.37855800       0.00134100       0.62583700 </v>
    <v>       0.50378400       0.12396700       0.59853300 </v>
    <v>       0.26201800       0.37576800       0.59961900 </v>
    <v>       0.37873800       0.50156500       0.62579500 </v>
    <v>       0.50409900       0.62395200       0.59851900 </v>
    <v>       0.76876700       0.86871700       0.60193300 </v>
    <v>       0.87856500       0.00168300       0.62564500 </v>
    <v>       0.99714800       0.11865200       0.60242600 </v>
    <v>       0.76142100       0.37673700       0.59958500 </v>
    <v>       0.87824200       0.50153600       0.62549200 </v>
    <v>       0.99724100       0.61890100       0.60242800 </v>
    <v>       0.37841500       0.24893300       0.62053700 </v>
    <v>       0.37690400       0.75030400       0.62034500 </v>
    <v>       0.88031700       0.24987400       0.62011600 </v>
    <v>       0.87857500       0.74939000       0.62041700 </v>
   </varray>
  </structure>
  <varray name="primitive_index" >
   <v type="int" >        1 </v>
   <v type="int" >        2 </v>
   <v type="int" >        3 </v>
   <v type="int" >        4 </v>
   <v type="int" >        5 </v>
   <v type="int" >        6 </v>
   <v type="int" >        7 </v>
   <v type="int" >        8 </v>
   <v type="int" >        9 </v>
   <v type="int" >       10 </v>
   <v type="int" >       11 </v>
   <v type="int" >       12 </v>
   <v type="int" >       13 </v>
   <v type="int" >       14 </v>
   <v type="int" >       15 </v>
   <v type="int" >       16 </v>
   <v type="int" >       17 </v>
   <v type="int" >       18 </v>
   <v type="int" >       19 </v>
   <v type="int" >       20 </v>
   <v type="int" >       21 </v>
   <v type="int" >       22 </v>
   <v type="int" >       23 </v>
   <v type="int" >       24 </v>
   <v type="int" >       25 </v>
   <v type="int" >       26 </v>
   <v type="int" >       27 </v>
   <v type="int" >       28 </v>
   <v type="int" >       29 </v>
   <v type="int" >       30 </v>
   <v type="int" >       31 </v>
   <v type="int" >       32 </v>
   <v type="int" >       33 </v>
   <v type="int" >       34 </v>
   <v type="int" >       35 </v>
   <v type="int" >       36 </v>
   <v type="int" >       37 </v>
   <v type="int" >       38 </v>
   <v type="int" >       39 </v>
   <v type="int" >       40 </v>
   <v type="int" >       41 </v>
   <v type="int" >       42 </v>
   <v type="int" >       43 </v>
   <v type="int" >       44 </v>
   <v type="int" >       45 </v>
   <v type="int" >       46 </v>
   <v type="int" >       47 </v>
   <v type="int" >       48 </v>
   <v type="int" >       49 </v>
   <v type="int" >       50 </v>
   <v type="int" >       51 </v>
   <v type="int" >       52 </v>
   <v type="int" >       53 </v>
   <v type="int" >       54 </v>
   <v type="int" >       55 </v>
   <v type="int" >       56 </v>
   <v type="int" >       57 </v>
   <v type="int" >       58 </v>
   <v type="int" >       59 </v>
   <v type="int" >       60 </v>
   <v type="int" >       61 </v>
   <v type="int" >       62 </v>
   <v type="int" >       63 </v>
   <v type="int" >       64 </v>
   <v type="int" >       65 </v>
   <v type="int" >       66 </v>
   <v type="int" >       67 </v>
   <v type="int" >       68 </v>
   <v type="int" >       69 </v>
   <v type="int" >       70 </v>
   <v type="int" >       71 </v>
   <v type="int" >       72 </v>
   <v type="int" >       73 </v>
   <v type="int" >       74 </v>
   <v type="int" >       75 </v>
   <v type="int" >       76 </v>
   <v type="int" >       77 </v>
   <v type="int" >       78 </v>
   <v type="int" >       79 </v>
   <v type="int" >       80 </v>
   <v type="int" >       81 </v>
   <v type="int" >       82 </v>
   <v type="int" >       83 </v>
   <v type="int" >       84 </v>
   <v type="int" >       85 </v>
   <v type="int" >       86 </v>
   <v type="int" >       87 </v>
   <v type="int" >       88 </v>
   <v type="int" >       89 </v>
   <v type="int" >       90 </v>
   <v type="int" >       91 </v>
   <v type="int" >       92 </v>
   <v type="int" >       93 </v>
   <v type="int" >       94 </v>
   <v type="int" >       95 </v>
   <v type="int" >       96 </v>
   <v type="int" >       97 </v>
   <v type="int" >       98 </v>
   <v type="int" >       99 </v>
   <v type="int" >      100 </v>
   <v type="int" >      101 </v>
   <v type="int" >      102 </v>
   <v type="int" >      103 </v>
   <v type="int" >      104 </v>
   <v type="int" >      105 </v>
   <v type="int" >      106 </v>
   <v type="int" >      107 </v>
   <v type="int" >      108 </v>
   <v type="int" >      109 </v>
   <v type="int" >      110 </v>
   <v type="int" >      111 </v>
   <v type="int" >      112 </v>
   <v type="int" >      113 </v>
   <v type="int" >      114 </v>
   <v type="int" >      115 </v>
   <v type="int" >      116 </v>
   <v type="int" >      117 </v>
   <v type="int" >      118 </v>
   <v type="int" >      119 </v>
   <v type="int" >      120 </v>
   <v type="int" >      121 </v>
   <v type="int" >      122 </v>
   <v type="int" >      123 </v>
   <v type="int" >      124 </v>
   <v type="int" >      125 </v>
   <v type="int" >      126 </v>
   <v type="int" >      127 </v>
   <v type="int" >      128 </v>
   <v type="int" >      129 </v>
   <v type="int" >      130 </v>
   <v type="int" >      131 </v>
   <v type="int" >      132 </v>
   <v type="int" >      133 </v>
   <v type="int" >      134 </v>
   <v type="int" >      135 </v>
   <v type="int" >      136 </v>
   <v type="int" >      137 </v>
   <v type="int" >      138 </v>
   <v type="int" >      139 </v>
   <v type="int" >      140 </v>
   <v type="int" >      141 </v>
   <v type="int" >      142 </v>
   <v type="int" >      143 </v>
   <v type="int" >      144 </v>
   <v type="int" >      145 </v>
   <v type="int" >      146 </v>
   <v type="int" >      147 </v>
   <v type="int" >      148 </v>
   <v type="int" >      149 </v>
   <v type="int" >      150 </v>
   <v type="int" >      151 </v>
   <v type="int" >      152 </v>
   <v type="int" >      153 </v>
   <v type="int" >      154 </v>
   <v type="int" >      155 </v>
   <v type="int" >      156 </v>
   <v type="int" >      157 </v>
   <v type="int" >      158 </v>
   <v type="int" >      159 </v>
   <v type="int" >      160 </v>
   <v type="int" >      161 </v>
   <v type="int" >      162 </v>
   <v type="int" >      163 </v>
   <v type="int" >      164 </v>
   <v type="int" >      165 </v>
   <v type="int" >      166 </v>
   <v type="int" >      167 </v>
   <v type="int" >      168 </v>
   <v type="int" >      169 </v>
   <v type="int" >      170 </v>
   <v type="int" >      171 </v>
   <v type="int" >      172 </v>
   <v type="int" >      173 </v>
   <v type="int" >      174 </v>
   <v type="int" >      175 </v>
   <v type="int" >      176 </v>
   <v type="int" >      177 </v>
   <v type="int" >      178 </v>
   <v type="int" >      179 </v>
   <v type="int" >      180 </v>
   <v type="int" >      181 </v>
   <v type="int" >      182 </v>
   <v type="int" >      183 </v>
   <v type="int" >      184 </v>
   <v type="int" >      185 </v>
   <v type="int" >      186 </v>
   <v type="int" >      187 </v>
   <v type="int" >      188 </v>
   <v type="int" >      189 </v>
   <v type="int" >      190 </v>
   <v type="int" >      191 </v>
   <v type="int" >      192 </v>
  </varray>
 </primitive_cell>
 <kpoints>
  <generation param="Gamma">
   <v type="int" name="divisions">       3        2        1 </v>
   <v name="usershift">      0.00000000       0.00000000       0.00000000 </v>
   <v name="genvec1">      0.33333333       0.00000000       0.00000000 </v>
   <v name="genvec2">      0.00000000       0.50000000       0.00000000 </v>
   <v name="genvec3">     -0.00000000       0.00000000       1.00000000 </v>
   <v name="shift">      0.00000000       0.00000000       0.00000000 </v>
  </generation>
  <varray name="kpointlist" >
   <v>       0.00000000       0.00000000       0.00000000 </v>
   <v>       0.33333333       0.00000000       0.00000000 </v>
   <v>       0.00000000       0.50000000       0.00000000 </v>
   <v>       0.33333333       0.50000000       0.00000000 </v>
  </varray>
  <varray name="weights" >
   <v>       0.16666667 </v>
   <v>       0.33333333 </v>
   <v>       0.16666667 </v>
   <v>       0.33333333 </v>
  </varray>
 </kpoints>
 <parameters>
  <separator name="general" >
   <i type="string" name="SYSTEM">unknown system</i>
   <i type="logical" name="LCOMPAT"> F  </i>
  </separator>
  <separator name="electronic" >
   <i type="string" name="PREC">accura</i>
   <i name="ENMAX">    500.00000000</i>
   <i name="ENAUG">    605.39200000</i>
   <i name="EDIFF">      0.00010000</i>
   <i type="int" name="IALGO">    68</i>
   <i type="int" name="IWAVPR">    11</i>
   <i type="int" name="NBANDS">   832</i>
   <i type="int" name="NBANDSLOW">    -1</i>
   <i type="int" name="NBANDSHIGH">    -1</i>
   <i name="NELECT">   1296.00000000</i>
   <i type="int" name="TURBO">     0</i>
   <i type="int" name="IRESTART">     0</i>
   <i type="int" name="NREBOOT">     0</i>
   <i type="int" name="NMIN">     0</i>
   <i name="EREF">      0.00000000</i>
   <separator name="electronic smearing" >
    <i type="int" name="ISMEAR">     0</i>
    <i name="SIGMA">      0.20000000</i>
    <i name="KSPACING">      0.50000000</i>
    <i type="logical" name="KGAMMA"> T  </i>
    <i type="logical" name="KBLOWUP"> T  </i>
   </separator>
   <separator name="electronic projectors" >
    <i type="logical" name="LREAL"> T  </i>
    <v name="ROPT">      0.00000000      0.00000000      0.00000000      0.00000000      0.00000000</v>
    <i type="int" name="LMAXPAW">  -100</i>
    <i type="int" name="LMAXMIX">     4</i>
    <i type="logical" name="NLSPLINE"> F  </i>
   </separator>
   <separator name="electronic startup" >
    <i type="int" name="ISTART">     1</i>
    <i type="int" name="ICHARG">     0</i>
    <i type="int" name="INIWAV">     1</i>
   </separator>
   <separator name="electronic spin" >
    <i type="int" name="ISPIN">     2</i>
    <i type="logical" name="LNONCOLLINEAR"> F  </i>
    <v name="MAGMOM">      0.02000000      0.02000000      0.02000000      0.02000000      0.01800000      0.01800000      0.01800000      0.01800000      0.02100000      0.02100000      0.02100000      0.02100000      0.02100000      0.02100000      0.02500000      0.02100000      0.00600000      0.00600000      0.00600000      0.00600000
      0.00800000      0.00800000      0.00800000      0.00800000      0.00200000      0.00200000      0.00200000      0.00100000      0.00600000      0.00600000      0.00700000      0.00600000      2.39700000      2.39800000      2.39800000      2.39900000      2.40200000      2.40200000      2.40300000      2.40400000
      2.55800000      2.55800000      2.55900000      2.55800000      2.56500000      2.56500000      2.56300000      2.56300000      2.43400000      2.47900000      2.45400000      2.46900000      2.50200000      2.51300000      2.45900000      2.45600000      2.21400000      2.22600000      1.93100000      1.94100000
      2.38000000      2.36500000      2.39200000      2.38600000      0.00800000      0.00000000      0.00100000      0.01100000     -0.00100000      0.00100000      0.00700000      0.00200000      0.00100000      0.01100000     -0.00200000      0.00200000     -0.00300000     -0.00300000     -0.00300000     -0.00200000
      0.04700000      0.04800000      0.05100000      0.05000000      0.12100000      0.12100000      0.12300000      0.12100000      0.22800000      0.22900000      0.23000000      0.22900000      0.43500000      0.43600000      0.43700000      0.43600000      0.20300000      0.20400000      0.20400000      0.20300000
      0.28700000      0.28800000      0.28600000      0.28900000      0.15000000      0.15100000      0.15200000      0.15100000      0.03700000      0.03800000      0.03900000      0.03900000      0.43800000      0.43800000      0.43800000      0.43800000      0.23100000      0.23100000      0.23100000      0.23100000
      0.29200000      0.29200000      0.29000000      0.29000000      0.19700000      0.19700000      0.19700000      0.19800000      0.39300000      0.40200000      0.35000000      0.32900000      0.10400000      0.10100000      0.09100000      0.09100000      0.24500000      0.24900000      0.26000000      0.26100000
      0.26700000      0.26400000      0.24500000      0.24500000      0.24300000      0.23700000      0.25300000      0.25200000      0.55400000      0.53000000      0.55700000      0.53300000      0.12100000      0.11800000      0.10200000      0.10600000      0.38900000      0.37300000      0.30800000      0.27000000
      0.28000000      0.28000000      0.26800000      0.27500000      0.23300000      0.24400000      0.19400000      0.19900000      0.49400000      0.50000000      0.50700000      0.51600000      0.24800000      0.24400000      0.23900000      0.24100000      0.41900000      0.59000000      0.01700000      0.35000000
      0.60700000      0.01000000      0.32100000     -0.59500000      0.05700000      0.30700000      0.64100000      0.26900000      0.60900000      0.60600000      0.62600000      0.63400000</v>
    <i name="NUPDOWN">     -1.00000000</i>
    <i type="logical" name="LSORBIT"> F  </i>
    <v name="SAXIS">      0.00000000      0.00000000      1.00000000</v>
    <i type="logical" name="LSPIRAL"> F  </i>
    <v name="QSPIRAL">      0.00000000      0.00000000      0.00000000</v>
    <i type="logical" name="LZEROZ"> F  </i>
   </separator>
   <separator name="electronic exchange-correlation" >
    <i type="logical" name="LASPH"> T  </i>
    <i type="logical" name="LMETAGGA"> F  </i>
   </separator>
   <separator name="electronic convergence" >
    <i type="int" name="NELM">   120</i>
    <i type="int" name="NELMDL">     0</i>
    <i type="int" name="NELMIN">     8</i>
    <i name="ENINI">    500.00000000</i>
    <separator name="electronic convergence detail" >
     <i type="logical" name="LDIAG"> T  </i>
     <i type="logical" name="LSUBROT"> F  </i>
     <i name="WEIMIN">      0.00100000</i>
     <i name="EBREAK">      0.00000003</i>
     <i name="DEPER">      0.30000000</i>
     <i type="int" name="NRMM">     4</i>
     <i name="TIME">      0.40000000</i>
    </separator>
   </separator>
   <separator name="electronic mixer" >
    <i name="AMIX">      0.40000000</i>
    <i name="BMIX">      1.00000000</i>
    <i name="AMIN">      0.01000000</i>
    <i name="AMIX_MAG">      1.60000000</i>
    <i name="BMIX_MAG">      1.00000000</i>
    <separator name="electronic mixer details" >
     <i type="int" name="IMIX">     4</i>
     <i type="logical" name="MIXFIRST"> F  </i>
     <i type="int" name="MAXMIX">   -45</i>
     <i name="WC">    100.00000000</i>
     <i type="int" name="INIMIX">     1</i>
     <i type="int" name="MIXPRE">     1</i>
     <i type="int" name="MREMOVE">     5</i>
    </separator>
   </separator>
   <separator name="electronic dipolcorrection" >
    <i type="logical" name="LDIPOL"> F  </i>
    <i type="logical" name="LMONO"> F  </i>
    <i type="int" name="IDIPOL">     0</i>
    <i name="EPSILON">      1.00000000</i>
    <v name="DIPOL">   -100.00000000   -100.00000000   -100.00000000</v>
    <i name="EFIELD">      0.00000000</i>
   </separator>
  </separator>
  <separator name="grids" >
   <i type="int" name="NGX">    84</i>
   <i type="int" name="NGY">   120</i>
   <i type="int" name="NGZ">   420</i>
   <i type="int" name="NGXF">   168</i>
   <i type="int" name="NGYF">   240</i>
   <i type="int" name="NGZF">   840</i>
   <i type="logical" name="ADDGRID"> F  </i>
  </separator>
  <separator name="ionic" >
   <i type="int" name="NSW">   300</i>
   <i type="int" name="IBRION">     2</i>
   <i type="int" name="MDALGO">     0</i>
   <i type="int" name="ISIF">     0</i>
   <i name="PSTRESS">      0.00000000</i>
   <i name="EDIFFG">     -0.05000000</i>
   <i type="int" name="NFREE">     1</i>
   <i name="POTIM">      0.50000000</i>
   <i name="SMASS">     -3.00000000</i>
   <i name="SCALEE">      1.00000000</i>
  </separator>
  <separator name="ionic md" >
   <i name="TEBEG">      0.00010000</i>
   <i name="TEEND">      0.00010000</i>
   <i type="int" name="NBLOCK">     1</i>
   <i type="int" name="KBLOCK">   300</i>
   <i type="int" name="NPACO">   256</i>
   <i name="APACO">     16.00000000</i>
  </separator>
  <separator name="symmetry" >
   <i type="int" name="ISYM">     0</i>
   <i name="SYMPREC">      0.00000000</i>
  </separator>
  <separator name="dos" >
   <i type="int" name="LORBIT">    11</i>
   <v name="RWIGS">     -1.00000000     -1.00000000     -1.00000000     -1.00000000     -1.00000000</v>
   <i type="int" name="NEDOS">   301</i>
   <i name="EMIN">     10.00000000</i>
   <i name="EMAX">    -10.00000000</i>
   <i name="EFERMI">      0.00000000</i>
  </separator>
  <separator name="writing" >
   <i type="int" name="NWRITE">     2</i>
   <i type="logical" name="LWAVE"> T  </i>
   <i type="logical" name="LDOWNSAMPLE"> F  </i>
   <i type="logical" name="LCHARG"> F  </i>
   <i type="logical" name="LPARD"> F  </i>
   <i type="logical" name="LVTOT"> F  </i>
   <i type="logical" name="LVHAR"> F  </i>
   <i type="logical" name="LELF"> F  </i>
   <i type="logical" name="LOPTICS"> F  </i>
   <v name="STM">      0.00000000      0.00000000      0.00000000      0.00000000      0.00000000      0.00000000      0.00000000</v>
  </separator>
  <separator name="performance" >
   <i type="int" name="NPAR">    16</i>
   <i type="int" name="NSIM">     4</i>
   <i type="int" name="NBLK">    -1</i>
   <i type="logical" name="LPLANE"> T  </i>
   <i type="logical" name="LSCALAPACK"> T  </i>
   <i type="logical" name="LSCAAWARE"> F  </i>
   <i type="logical" name="LSCALU"> F  </i>
   <i type="logical" name="LASYNC"> F  </i>
   <i type="logical" name="LORBITALREAL"> F  </i>
  </separator>
  <separator name="miscellaneous" >
   <i type="int" name="IDIOT">     3</i>
   <i type="int" name="PHON_NSTRUCT">    -1</i>
   <i type="logical" name="LMUSIC"> F  </i>
   <v name="POMASS">    137.32700000     87.62000000     58.93300000      1.00000000     16.00000000</v>
   <v name="DARWINR">      0.00000000      0.00000000      0.00000000      0.00000000      0.00000000</v>
   <v name="DARWINV">      1.00000000      1.00000000      1.00000000      1.00000000      1.00000000</v>
   <i type="logical" name="LCORR"> T  </i>
  </separator>
  <i type="logical" name="GGA_COMPAT"> T  </i>
  <i type="logical" name="LBERRY"> F  </i>
  <i type="int" name="ICORELEVEL">     0</i>
  <i type="logical" name="LDAU"> T  </i>
  <v type="int" name="LDAUTYPE">     2</v>
  <v type="int" name="LDAUL">     0</v>
  <v name="LDAUU">      0.00000000</v>
  <v name="LDAUJ">      0.00000000</v>
  <i type="int" name="LDAUPRINT">     0</i>
  <i type="int" name="I_CONSTRAINED_M">     0</i>
  <separator name="electronic exchange-correlation" >
   <i type="string" name="GGA">PE</i>
   <i type="int" name="VOSKOWN">     0</i>
   <i type="logical" name="LHFCALC"> F  </i>
   <i type="string" name="PRECFOCK"></i>
   <i type="logical" name="LSYMGRAD"> F  </i>
   <i type="logical" name="LHFONE"> F  </i>
   <i type="logical" name="LRHFCALC"> F  </i>
   <i type="logical" name="LTHOMAS"> F  </i>
   <i type="logical" name="LMODELHF"> F  </i>
   <i type="logical" name="LFOCKACE"> F  </i>
   <i name="ENCUT4O">     -1.00000000</i>
   <i type="int" name="EXXOEP">     0</i>
   <i type="int" name="FOURORBIT">     0</i>
   <i name="AEXX">      0.00000000</i>
   <i name="HFALPHA">      0.00000000</i>
   <i name="MCALPHA">      0.00000000</i>
   <i name="ALDAX">      1.00000000</i>
   <i name="AGGAX">      1.00000000</i>
   <i name="ALDAC">      1.00000000</i>
   <i name="AGGAC">      1.00000000</i>
   <i type="int" name="NKREDX">     1</i>
   <i type="int" name="NKREDY">     1</i>
   <i type="int" name="NKREDZ">     1</i>
   <i type="logical" name="SHIFTRED"> F  </i>
   <i type="logical" name="ODDONLY"> F  </i>
   <i type="logical" name="EVENONLY"> F  </i>
   <i type="int" name="LMAXFOCK">     0</i>
   <i type="int" name="NMAXFOCKAE">     0</i>
   <i type="logical" name="LFOCKAEDFT"> F  </i>
   <i name="HFSCREEN">      0.00000000</i>
   <i name="HFSCREENC">      0.00000000</i>
   <i type="int" name="NBANDSGWLOW">     0</i>
  </separator>
  <separator name="vdW DFT" >
   <i type="logical" name="LUSE_VDW"> F  </i>
   <i name="Zab_VDW">     -0.84910000</i>
   <i name="PARAM1">      0.12340000</i>
   <i name="PARAM2">      1.00000000</i>
   <i name="PARAM3">      0.00000000</i>
  </separator>
  <separator name="model GW" >
   <i type="int" name="MODEL_GW">     0</i>
   <i name="MODEL_EPS0">     30.58551864</i>
   <i name="MODEL_ALPHA">      1.00000000</i>
  </separator>
  <separator name="linear response parameters" >
   <i type="logical" name="LEPSILON"> F  </i>
   <i type="logical" name="LRPA"> F  </i>
   <i type="logical" name="LNABLA"> F  </i>
   <i type="logical" name="LVEL"> F  </i>
   <i type="int" name="KINTER">     0</i>
   <i name="CSHIFT">      0.10000000</i>
   <i name="OMEGAMAX">     -1.00000000</i>
   <i name="DEG_THRESHOLD">      0.00200000</i>
   <i name="RTIME">     -0.10000000</i>
   <i name="WPLASMAI">      0.00000000</i>
   <v name="DFIELD">      0.00000000      0.00000000      0.00000000</v>
   <v name="WPLASMA">      0.00000000      0.00000000      0.00000000      0.00000000      0.00000000      0.00000000      0.00000000      0.00000000      0.00000000</v>
  </separator>
  <separator name="orbital magnetization" >
   <i type="logical" name="NUCIND"> F  </i>
   <v name="MAGPOS">      0.00000000      0.00000000      0.00000000</v>
   <i type="logical" name="LNICSALL"> T  </i>
   <i type="logical" name="ORBITALMAG"> F  </i>
   <i type="logical" name="LMAGBLOCH"> F  </i>
   <i type="logical" name="LCHIMAG"> F  </i>
   <i type="logical" name="LGAUGE"> T  </i>
   <i type="int" name="MAGATOM">     0</i>
   <v name="MAGDIPOL">      0.00000000      0.00000000      0.00000000</v>
   <v name="AVECCONST">      0.00000000      0.00000000      0.00000000</v>
  </separator>
  <separator name="response functions" >
   <i type="logical" name="LFINITE_TEMPERATURE"> F  </i>
   <i type="logical" name="LADDER"> F  </i>
   <i type="logical" name="LRPAFORCE"> F  </i>
   <i type="logical" name="LFXC"> F  </i>
   <i type="logical" name="LHARTREE"> T  </i>
   <i type="int" name="IBSE">     0</i>
   <v type="int" name="KPOINT">    -1     0     0     0</v>
   <i type="logical" name="LTCTC"> F  </i>
   <i type="logical" name="LTCTE"> F  </i>
   <i type="logical" name="LTETE"> F  </i>
   <i type="logical" name="LTRIPLET"> F  </i>
   <i type="logical" name="LFXCEPS"> F  </i>
   <i type="logical" name="LFXHEG"> F  </i>
   <i type="int" name="NATURALO">     2</i>
   <i type="logical" name="LHOLEGF"> F  </i>
   <i type="logical" name="L2ORDER"> F  </i>
   <i type="logical" name="LDMP1"> F  </i>
   <i type="logical" name="LMP2LT"> F  </i>
   <i type="logical" name="LSMP2LT"> F  </i>
   <i type="logical" name="LGWLF"> F  </i>
   <i name="ENCUTGW">     -2.00000000</i>
   <i name="ENCUTGWSOFT">     -2.00000000</i>
   <i name="ENCUTLF">     -1.00000000</i>
   <i type="logical" name="LESF_SPLINES"> F  </i>
   <i type="int" name="LMAXMP2">    -1</i>
   <i name="SCISSOR">      0.00000000</i>
   <i type="int" name="NOMEGA">     0</i>
   <i type="int" name="NOMEGAR">     0</i>
   <i type="int" name="NBANDSGW">    -1</i>
   <i type="int" name="NBANDSO">    -1</i>
   <i type="int" name="NBANDSV">    -1</i>
   <i type="int" name="NELM">   120</i>
   <i type="int" name="NELMHF">     1</i>
   <i type="int" name="DIM">     3</i>
   <i type="int" name="IESPILON">     4</i>
   <i type="int" name="ANTIRES">     0</i>
   <i name="OMEGAMAX">    -30.00000000</i>
   <i name="OMEGAMIN">    -30.00000000</i>
   <i name="OMEGATL">   -200.00000000</i>
   <i type="int" name="OMEGAGRID">     0</i>
   <i name="CSHIFT">     -0.10000000</i>
   <i type="logical" name="LSELFENERGY"> F  </i>
   <i type="logical" name="LSPECTRAL"> F  </i>
   <i type="logical" name="LSPECTRALGW"> F  </i>
   <i type="logical" name="LSINGLES"> F  </i>
   <i type="logical" name="LFERMIGW"> F  </i>
   <i type="logical" name="ODDONLYGW"> F  </i>
   <i type="logical" name="EVENONLYGW"> F  </i>
   <i type="int" name="NKREDLFX">     1</i>
   <i type="int" name="NKREDLFY">     1</i>
   <i type="int" name="NKREDLFZ">     1</i>
   <i type="int" name="MAXMEM">  2800</i>
   <i type="int" name="TELESCOPE">     0</i>
   <i type="int" name="NTAUPAR">    -1</i>
   <i type="int" name="NOMEGAPAR">    -1</i>
   <i name="DAMP_NEWTON">      0.80000001</i>
   <i name="LAMBDA">      1.00000000</i>
  </separator>
  <separator name="External order field" >
   <i name="OFIELD_KAPPA">      0.00000000</i>
   <v name="OFIELD_K">      0.00000000      0.00000000      0.00000000</v>
   <i name="OFIELD_Q6_NEAR">      0.00000000</i>
   <i name="OFIELD_Q6_FAR">      0.00000000</i>
   <i name="OFIELD_A">      0.00000000</i>
  </separator>
 </parameters>
 <atominfo>
  <atoms>     192 </atoms>
  <types>       5 </types>
  <array name="atoms" >
   <dimension dim="1">ion</dimension>
   <field type="string">element</field>
   <field type="int">atomtype</field>
   <set>
    <rc><c>Ba</c><c>   1</c></rc>
    <rc><c>Ba</c><c>   1</c></rc>
    <rc><c>Ba</c><c>   1</c></rc>
    <rc><c>Ba</c><c>   1</c></rc>
    <rc><c>Ba</c><c>   1</c></rc>
    <rc><c>Ba</c><c>   1</c></rc>
    <rc><c>Ba</c><c>   1</c></rc>
    <rc><c>Ba</c><c>   1</c></rc>
    <rc><c>Ba</c><c>   1</c></rc>
    <rc><c>Ba</c><c>   1</c></rc>
    <rc><c>Ba</c><c>   1</c></rc>
    <rc><c>Ba</c><c>   1</c></rc>
    <rc><c>Ba</c><c>   1</c></rc>
    <rc><c>Ba</c><c>   1</c></rc>
    <rc><c>Ba</c><c>   1</c></rc>
    <rc><c>Ba</c><c>   1</c></rc>
    <rc><c>Sr</c><c>   2</c></rc>
    <rc><c>Sr</c><c>   2</c></rc>
    <rc><c>Sr</c><c>   2</c></rc>
    <rc><c>Sr</c><c>   2</c></rc>
    <rc><c>Sr</c><c>   2</c></rc>
    <rc><c>Sr</c><c>   2</c></rc>
    <rc><c>Sr</c><c>   2</c></rc>
    <rc><c>Sr</c><c>   2</c></rc>
    <rc><c>Sr</c><c>   2</c></rc>
    <rc><c>Sr</c><c>   2</c></rc>
    <rc><c>Sr</c><c>   2</c></rc>
    <rc><c>Sr</c><c>   2</c></rc>
    <rc><c>Sr</c><c>   2</c></rc>
    <rc><c>Sr</c><c>   2</c></rc>
    <rc><c>Sr</c><c>   2</c></rc>
    <rc><c>Sr</c><c>   2</c></rc>
    <rc><c>Co</c><c>   3</c></rc>
    <rc><c>Co</c><c>   3</c></rc>
    <rc><c>Co</c><c>   3</c></rc>
    <rc><c>Co</c><c>   3</c></rc>
    <rc><c>Co</c><c>   3</c></rc>
    <rc><c>Co</c><c>   3</c></rc>
    <rc><c>Co</c><c>   3</c></rc>
    <rc><c>Co</c><c>   3</c></rc>
    <rc><c>Co</c><c>   3</c></rc>
    <rc><c>Co</c><c>   3</c></rc>
    <rc><c>Co</c><c>   3</c></rc>
    <rc><c>Co</c><c>   3</c></rc>
    <rc><c>Co</c><c>   3</c></rc>
    <rc><c>Co</c><c>   3</c></rc>
    <rc><c>Co</c><c>   3</c></rc>
    <rc><c>Co</c><c>   3</c></rc>
    <rc><c>Co</c><c>   3</c></rc>
    <rc><c>Co</c><c>   3</c></rc>
    <rc><c>Co</c><c>   3</c></rc>
    <rc><c>Co</c><c>   3</c></rc>
    <rc><c>Co</c><c>   3</c></rc>
    <rc><c>Co</c><c>   3</c></rc>
    <rc><c>Co</c><c>   3</c></rc>
    <rc><c>Co</c><c>   3</c></rc>
    <rc><c>Co</c><c>   3</c></rc>
    <rc><c>Co</c><c>   3</c></rc>
    <rc><c>Co</c><c>   3</c></rc>
    <rc><c>Co</c><c>   3</c></rc>
    <rc><c>Co</c><c>   3</c></rc>
    <rc><c>Co</c><c>   3</c></rc>
    <rc><c>Co</c><c>   3</c></rc>
    <rc><c>Co</c><c>   3</c></rc>
    <rc><c>H </c><c>   4</c></rc>
    <rc><c>H </c><c>   4</c></rc>
    <rc><c>H </c><c>   4</c></rc>
    <rc><c>H </c><c>   4</c></rc>
    <rc><c>H </c><c>   4</c></rc>
    <rc><c>H </c><c>   4</c></rc>
    <rc><c>H </c><c>   4</c></rc>
    <rc><c>H </c><c>   4</c></rc>
    <rc><c>H </c><c>   4</c></rc>
    <rc><c>H </c><c>   4</c></rc>
    <rc><c>H </c><c>   4</c></rc>
    <rc><c>H </c><c>   4</c></rc>
    <rc><c>H </c><c>   4</c></rc>
    <rc><c>H </c><c>   4</c></rc>
    <rc><c>H </c><c>   4</c></rc>
    <rc><c>H </c><c>   4</c></rc>
    <rc><c>O </c><c>   5</c></rc>
    <rc><c>O </c><c>   5</c></rc>
    <rc><c>O </c><c>   5</c></rc>
    <rc><c>O </c><c>   5</c></rc>
    <rc><c>O </c><c>   5</c></rc>
    <rc><c>O </c><c>   5</c></rc>
    <rc><c>O </c><c>   5</c></rc>
    <rc><c>O </c><c>   5</c></rc>
    <rc><c>O </c><c>   5</c></rc>
    <rc><c>O </c><c>   5</c></rc>
    <rc><c>O </c><c>   5</c></rc>
    <rc><c>O </c><c>   5</c></rc>
    <rc><c>O </c><c>   5</c></rc>
    <rc><c>O </c><c>   5</c></rc>
    <rc><c>O </c><c>   5</c></rc>
    <rc><c>O </c><c>   5</c></rc>
    <rc><c>O </c><c>   5</c></rc>
    <rc><c>O </c><c>   5</c></rc>
    <rc><c>O </c><c>   5</c></rc>
    <rc><c>O </c><c>   5</c></rc>
    <rc><c>O </c><c>   5</c></rc>
    <rc><c>O </c><c>   5</c></rc>
    <rc><c>O </c><c>   5</c></rc>
    <rc><c>O </c><c>   5</c></rc>
    <rc><c>O </c><c>   5</c></rc>
    <rc><c>O </c><c>   5</c></rc>
    <rc><c>O </c><c>   5</c></rc>
    <rc><c>O </c><c>   5</c></rc>
    <rc><c>O </c><c>   5</c></rc>
    <rc><c>O </c><c>   5</c></rc>
    <rc><c>O </c><c>   5</c></rc>
    <rc><c>O </c><c>   5</c></rc>
    <rc><c>O </c><c>   5</c></rc>
    <rc><c>O </c><c>   5</c></rc>
    <rc><c>O </c><c>   5</c></rc>
    <rc><c>O </c><c>   5</c></rc>
    <rc><c>O </c><c>   5</c></rc>
    <rc><c>O </c><c>   5</c></rc>
    <rc><c>O </c><c>   5</c></rc>
    <rc><c>O </c><c>   5</c></rc>
    <rc><c>O </c><c>   5</c></rc>
    <rc><c>O </c><c>   5</c></rc>
    <rc><c>O </c><c>   5</c></rc>
    <rc><c>O </c><c>   5</c></rc>
    <rc><c>O </c><c>   5</c></rc>
    <rc><c>O </c><c>   5</c></rc>
    <rc><c>O </c><c>   5</c></rc>
    <rc><c>O </c><c>   5</c></rc>
    <rc><c>O </c><c>   5</c></rc>
    <rc><c>O </c><c>   5</c></rc>
    <rc><c>O </c><c>   5</c></rc>
    <rc><c>O </c><c>   5</c></rc>
    <rc><c>O </c><c>   5</c></rc>
    <rc><c>O </c><c>   5</c></rc>
    <rc><c>O </c><c>   5</c></rc>
    <rc><c>O </c><c>   5</c></rc>
    <rc><c>O </c><c>   5</c></rc>
    <rc><c>O </c><c>   5</c></rc>
    <rc><c>O </c><c>   5</c></rc>
    <rc><c>O </c><c>   5</c></rc>
    <rc><c>O </c><c>   5</c></rc>
    <rc><c>O </c><c>   5</c></rc>
    <rc><c>O </c><c>   5</c></rc>
    <rc><c>O </c><c>   5</c></rc>
    <rc><c>O </c><c>   5</c></rc>
    <rc><c>O </c><c>   5</c></rc>
    <rc><c>O </c><c>   5</c></rc>
    <rc><c>O </c><c>   5</c></rc>
    <rc><c>O </c><c>   5</c></rc>
    <rc><c>O </c><c>   5</c></rc>
    <rc><c>O </c><c>   5</c></rc>
    <rc><c>O </c><c>   5</c></rc>
    <rc><c>O </c><c>   5</c></rc>
    <rc><c>O </c><c>   5</c></rc>
    <rc><c>O </c><c>   5</c></rc>
    <rc><c>O </c><c>   5</c></rc>
    <rc><c>O </c><c>   5</c></rc>
    <rc><c>O </c><c>   5</c></rc>
    <rc><c>O </c><c>   5</c></rc>
    <rc><c>O </c><c>   5</c></rc>
    <rc><c>O </c><c>   5</c></rc>
    <rc><c>O </c><c>   5</c></rc>
    <rc><c>O </c><c>   5</c></rc>
    <rc><c>O </c><c>   5</c></rc>
    <rc><c>O </c><c>   5</c></rc>
    <rc><c>O </c><c>   5</c></rc>
    <rc><c>O </c><c>   5</c></rc>
    <rc><c>O </c><c>   5</c></rc>
    <rc><c>O </c><c>   5</c></rc>
    <rc><c>O </c><c>   5</c></rc>
    <rc><c>O </c><c>   5</c></rc>
    <rc><c>O </c><c>   5</c></rc>
    <rc><c>O </c><c>   5</c></rc>
    <rc><c>O </c><c>   5</c></rc>
    <rc><c>O </c><c>   5</c></rc>
    <rc><c>O </c><c>   5</c></rc>
    <rc><c>O </c><c>   5</c></rc>
    <rc><c>O </c><c>   5</c></rc>
    <rc><c>O </c><c>   5</c></rc>
    <rc><c>O </c><c>   5</c></rc>
    <rc><c>O </c><c>   5</c></rc>
    <rc><c>O </c><c>   5</c></rc>
    <rc><c>O </c><c>   5</c></rc>
    <rc><c>O </c><c>   5</c></rc>
    <rc><c>O </c><c>   5</c></rc>
    <rc><c>O </c><c>   5</c></rc>
    <rc><c>O </c><c>   5</c></rc>
    <rc><c>O </c><c>   5</c></rc>
    <rc><c>O </c><c>   5</c></rc>
    <rc><c>O </c><c>   5</c></rc>
    <rc><c>O </c><c>   5</c></rc>
    <rc><c>O </c><c>   5</c></rc>
   </set>
  </array>
  <array name="atomtypes" >
   <dimension dim="1">type</dimension>
   <field type="int">atomspertype</field>
   <field type="string">element</field>
   <field>mass</field>
   <field>valence</field>
   <field type="string">pseudopotential</field>
   <set>
    <rc><c>  16</c><c>Ba</c><c>    137.32700000</c><c>     10.00000000</c><c>  PAW_PBE Ba_sv 06Sep2000               </c></rc>
    <rc><c>  16</c><c>Sr</c><c>     87.62000000</c><c>     10.00000000</c><c>  PAW_PBE Sr_sv 07Sep2000               </c></rc>
    <rc><c>  32</c><c>Co</c><c>     58.93300000</c><c>      9.00000000</c><c>  PAW_PBE Co 02Aug2007                  </c></rc>
    <rc><c>  16</c><c>H </c><c>      1.00000000</c><c>      1.00000000</c><c>  PAW_PBE H 15Jun2001                   </c></rc>
    <rc><c> 112</c><c>O </c><c>     16.00000000</c><c>      6.00000000</c><c>  PAW_PBE O 08Apr2002                   </c></rc>
   </set>
  </array>
 </atominfo>
 <structure name="initialpos" >
  <crystal>
   <varray name="basis" >
    <v>      11.10571100       0.00000000      -0.00958600 </v>
    <v>       0.00000000      15.87095000       0.00000000 </v>
    <v>       0.00000000       0.00000000      55.52857600 </v>
   </varray>
   <i name="volume">   9787.36596561 </i>
   <varray name="rec_basis" >
    <v>       0.09004376       0.00000000       0.00000000 </v>
    <v>       0.00000000       0.06300820       0.00000000 </v>
    <v>       0.00001554       0.00000000       0.01800875 </v>
   </varray>
  </crystal>
  <varray name="positions" >
   <v>       0.12533700       0.24770700       0.42255300 </v>
   <v>       0.12533900       0.74771100       0.42255400 </v>
   <v>       0.62533600       0.24770600       0.42255200 </v>
   <v>       0.62533900       0.74771000       0.42255400 </v>
   <v>       0.37481100       0.00166700       0.47540500 </v>
   <v>       0.37480700       0.50167600       0.47540200 </v>
   <v>       0.87480000       0.00165700       0.47541200 </v>
   <v>       0.87479900       0.50165900       0.47540700 </v>
   <v>       0.12523400       0.25174800       0.52449500 </v>
   <v>       0.12522000       0.75178300       0.52449900 </v>
   <v>       0.62523700       0.25176400       0.52448900 </v>
   <v>       0.62524600       0.75180100       0.52450100 </v>
   <v>       0.37416900       0.99853700       0.57755100 </v>
   <v>       0.37463300       0.49946400       0.57734100 </v>
   <v>       0.87407700       0.99846100       0.57749700 </v>
   <v>       0.87429100       0.49933900       0.57730000 </v>
   <v>       0.37480100       0.25003300       0.47523700 </v>
   <v>       0.37480700       0.75005900       0.47524300 </v>
   <v>       0.87480800       0.25005400       0.47524400 </v>
   <v>       0.87480300       0.75006400       0.47524500 </v>
   <v>       0.12497600       0.49971300       0.42744300 </v>
   <v>       0.12498100       0.99971200       0.42744400 </v>
   <v>       0.62498200       0.49971500       0.42744300 </v>
   <v>       0.62497600       0.99971400       0.42744400 </v>
   <v>       0.37483400       0.24905600       0.57375200 </v>
   <v>       0.37487200       0.74916100       0.57382600 </v>
   <v>       0.87457400       0.24907400       0.57377600 </v>
   <v>       0.87461800       0.74921500       0.57374700 </v>
   <v>       0.12518900       0.99997800       0.52468800 </v>
   <v>       0.12519800       0.50001000       0.52467100 </v>
   <v>       0.62524400       0.99995600       0.52469000 </v>
   <v>       0.62524400       0.49997300       0.52468400 </v>
   <v>       0.36592200       0.37496300       0.42608100 </v>
   <v>       0.36591800       0.87496300       0.42607900 </v>
   <v>       0.86592500       0.37496300       0.42608000 </v>
   <v>       0.86591700       0.87496400       0.42607800 </v>
   <v>       0.38410000       0.12485200       0.42605900 </v>
   <v>       0.38408200       0.62485600       0.42606100 </v>
   <v>       0.88408300       0.12485400       0.42606200 </v>
   <v>       0.88408400       0.62485400       0.42606000 </v>
   <v>       0.12871500       0.12561600       0.47413500 </v>
   <v>       0.12871400       0.62562800       0.47413100 </v>
   <v>       0.62872500       0.12562100       0.47413100 </v>
   <v>       0.62873500       0.62562800       0.47412800 </v>
   <v>       0.11992300       0.37477600       0.47381600 </v>
   <v>       0.11989400       0.87478200       0.47381100 </v>
   <v>       0.61991200       0.37477800       0.47381700 </v>
   <v>       0.61991100       0.87478000       0.47381300 </v>
   <v>       0.37090900       0.37565300       0.52625300 </v>
   <v>       0.37105500       0.87555400       0.52626400 </v>
   <v>       0.87102200       0.37556700       0.52625400 </v>
   <v>       0.87105000       0.87558500       0.52624900 </v>
   <v>       0.38010900       0.12478500       0.52638700 </v>
   <v>       0.38023000       0.62478600       0.52636700 </v>
   <v>       0.88052100       0.12476700       0.52638600 </v>
   <v>       0.88046300       0.62477400       0.52637900 </v>
   <v>       0.12951200       0.12508600       0.57467600 </v>
   <v>       0.12995300       0.62478100       0.57456600 </v>
   <v>       0.62833400       0.12500500       0.57391100 </v>
   <v>       0.62832600       0.62486400       0.57392100 </v>
   <v>       0.12117600       0.37493000       0.57499000 </v>
   <v>       0.12082200       0.87475800       0.57494000 </v>
   <v>       0.62106900       0.37493900       0.57504400 </v>
   <v>       0.62087600       0.87473300       0.57497700 </v>
   <v>       0.34270600       0.87357900       0.60935800 </v>
   <v>       0.45912700       0.99704200       0.63164000 </v>
   <v>       0.57964900       0.12518800       0.60799600 </v>
   <v>       0.33699800       0.37316200       0.60609400 </v>
   <v>       0.45951600       0.49706100       0.63163800 </v>
   <v>       0.57968700       0.62521400       0.60799900 </v>
   <v>       0.84228100       0.87364900       0.60934800 </v>
   <v>       0.95946500       0.99721700       0.63170500 </v>
   <v>       0.06964800       0.12304700       0.61032100 </v>
   <v>       0.83642300       0.37323800       0.60604300 </v>
   <v>       0.95958700       0.49718600       0.63172800 </v>
   <v>       0.06975900       0.62313100       0.61031800 </v>
   <v>       0.46344800       0.25018600       0.62685800 </v>
   <v>       0.46257900       0.75033400       0.62698100 </v>
   <v>       0.96308400       0.24983100       0.62710500 </v>
   <v>       0.96297300       0.75024400       0.62703400 </v>
   <v>       0.12503200       0.25043700       0.47463600 </v>
   <v>       0.12504500       0.75039700       0.47464100 </v>
   <v>       0.62504900       0.25034900       0.47464500 </v>
   <v>       0.62504300       0.75035200       0.47464700 </v>
   <v>       0.37509500       0.24935300       0.42519800 </v>
   <v>       0.37509500       0.74935000       0.42519800 </v>
   <v>       0.87509600       0.24934100       0.42519900 </v>
   <v>       0.87509700       0.74934000       0.42519900 </v>
   <v>       0.01476200       0.12492800       0.45139100 </v>
   <v>       0.01488000       0.62495300       0.45140500 </v>
   <v>       0.51480500       0.12492800       0.45139600 </v>
   <v>       0.51475000       0.62492900       0.45139200 </v>
   <v>       0.48513200       0.12486500       0.40328000 </v>
   <v>       0.48495000       0.62486900       0.40325000 </v>
   <v>       0.98476300       0.12481700       0.40320800 </v>
   <v>       0.98513800       0.62483600       0.40327100 </v>
   <v>       0.49299000       0.37496300       0.44585100 </v>
   <v>       0.49309700       0.87495800       0.44583600 </v>
   <v>       0.99297800       0.37496400       0.44585200 </v>
   <v>       0.99309500       0.87495700       0.44583800 </v>
   <v>       0.01476700       0.37502000       0.49682900 </v>
   <v>       0.01471100       0.87502200       0.49683800 </v>
   <v>       0.51486500       0.37497200       0.49682800 </v>
   <v>       0.51488400       0.87502100       0.49681500 </v>
   <v>       0.37498100       0.00032600       0.42469800 </v>
   <v>       0.37498200       0.50032000       0.42470000 </v>
   <v>       0.87498300       0.00032900       0.42469800 </v>
   <v>       0.87498000       0.50033000       0.42469900 </v>
   <v>       0.12500300       0.50016400       0.47466500 </v>
   <v>       0.12501700       0.00019400       0.47466400 </v>
   <v>       0.62501000       0.50023200       0.47466600 </v>
   <v>       0.62501200       0.00022700       0.47466500 </v>
   <v>       0.26547200       0.37512900       0.40328600 </v>
   <v>       0.26534700       0.87511400       0.40331900 </v>
   <v>       0.76530000       0.37510200       0.40333100 </v>
   <v>       0.76530500       0.87509900       0.40333300 </v>
   <v>       0.23489200       0.37489600       0.45135400 </v>
   <v>       0.23491700       0.87489600       0.45135000 </v>
   <v>       0.73509400       0.37489800       0.45131500 </v>
   <v>       0.73502900       0.87489500       0.45132700 </v>
   <v>       0.23534600       0.12496700       0.49698200 </v>
   <v>       0.23537000       0.62497200       0.49698900 </v>
   <v>       0.73538100       0.12496700       0.49698300 </v>
   <v>       0.73531300       0.62497100       0.49697100 </v>
   <v>       0.25728900       0.12430800       0.44631800 </v>
   <v>       0.25730700       0.62429500       0.44631800 </v>
   <v>       0.75732400       0.12437800       0.44630900 </v>
   <v>       0.75733900       0.62428100       0.44631400 </v>
   <v>       0.12450000       0.25082200       0.57492300 </v>
   <v>       0.12487000       0.75041100       0.57499000 </v>
   <v>       0.62507000       0.25105100       0.57477100 </v>
   <v>       0.62563700       0.74949500       0.57475300 </v>
   <v>       0.37532300       0.25090400       0.52530600 </v>
   <v>       0.37530200       0.75089300       0.52530700 </v>
   <v>       0.87529200       0.25065600       0.52529300 </v>
   <v>       0.87529100       0.75072900       0.52530100 </v>
   <v>       0.00783600       0.12520300       0.55259000 </v>
   <v>       0.00786300       0.62524400       0.55262100 </v>
   <v>       0.50762600       0.12565000       0.55262400 </v>
   <v>       0.50767100       0.62576400       0.55260600 </v>
   <v>       0.48276000       0.12496600       0.50327700 </v>
   <v>       0.48285200       0.62498800       0.50326300 </v>
   <v>       0.98242800       0.12492200       0.50330800 </v>
   <v>       0.98248300       0.62494000       0.50330400 </v>
   <v>       0.48450400       0.37504600       0.54831400 </v>
   <v>       0.48665700       0.87493000       0.54834500 </v>
   <v>       0.98584300       0.37497200       0.54833000 </v>
   <v>       0.98710400       0.87489800       0.54829000 </v>
   <v>       0.01904400       0.37417500       0.59719800 </v>
   <v>       0.01680900       0.87444800       0.59644500 </v>
   <v>       0.51845900       0.37432000       0.59715600 </v>
   <v>       0.51608500       0.87473500       0.59636600 </v>
   <v>       0.37518600       0.00057600       0.52535300 </v>
   <v>       0.37520200       0.50057600       0.52534800 </v>
   <v>       0.87514800       0.00064600       0.52535300 </v>
   <v>       0.87524400       0.50069900       0.52535900 </v>
   <v>       0.12469300       0.49884900       0.57437500 </v>
   <v>       0.12524600       0.00063500       0.57430500 </v>
   <v>       0.62486100       0.49920000       0.57428600 </v>
   <v>       0.62509700       0.00114200       0.57419100 </v>
   <v>       0.26830500       0.37490600       0.50359200 </v>
   <v>       0.26741500       0.87498900       0.50341600 </v>
   <v>       0.76668300       0.37500500       0.50324600 </v>
   <v>       0.76718600       0.87493900       0.50336200 </v>
   <v>       0.24186100       0.37418300       0.55200600 </v>
   <v>       0.24212100       0.87426400       0.55273800 </v>
   <v>       0.74228300       0.37454300       0.55194900 </v>
   <v>       0.74234600       0.87397200       0.55262600 </v>
   <v>       0.23092200       0.12588500       0.59620100 </v>
   <v>       0.23095000       0.62579300       0.59622000 </v>
   <v>       0.73065000       0.12575300       0.59607200 </v>
   <v>       0.73066700       0.62577200       0.59607800 </v>
   <v>       0.26279300       0.12487200       0.54845700 </v>
   <v>       0.26255100       0.62488100       0.54851900 </v>
   <v>       0.76617200       0.12487600       0.54814500 </v>
   <v>       0.76619300       0.62487500       0.54813600 </v>
   <v>       0.26902500       0.86889800       0.60179900 </v>
   <v>       0.37855800       0.00134100       0.62583700 </v>
   <v>       0.50378400       0.12396700       0.59853300 </v>
   <v>       0.26201800       0.37576800       0.59961900 </v>
   <v>       0.37873800       0.50156500       0.62579500 </v>
   <v>       0.50409900       0.62395200       0.59851900 </v>
   <v>       0.76876700       0.86871700       0.60193300 </v>
   <v>       0.87856500       0.00168300       0.62564500 </v>
   <v>       0.99714800       0.11865200       0.60242600 </v>
   <v>       0.76142100       0.37673700       0.59958500 </v>
   <v>       0.87824200       0.50153600       0.62549200 </v>
   <v>       0.99724100       0.61890100       0.60242800 </v>
   <v>       0.37841500       0.24893300       0.62053700 </v>
   <v>       0.37690400       0.75030400       0.62034500 </v>
   <v>       0.88031700       0.24987400       0.62011600 </v>
   <v>       0.87857500       0.74939000       0.62041700 </v>
  </varray>
 </structure>
 <calculation>
  <scstep>
   <time name="dav"> 1141.48  288.98</time>
   <time name="total"> 1237.20  316.15</time>
   <energy>
    <i name="alphaZ">   1501.22037353 </i>
    <i name="ewald">2350398.43891011 </i>
    <i name="hartreedc">**************** </i>
    <i name="XCdc">   4729.93446421 </i>
    <i name="pawpsdc"> 121327.56920291 </i>
    <i name="pawaedc">-122790.74587999 </i>
    <i name="eentropy">     -1.29282466 </i>
    <i name="bandstr"> -15937.95900767 </i>
    <i name="atom">  99353.53604020 </i>
    <i name="e_fr_energy">  -1077.68408399 </i>
    <i name="e_wo_entrp">  -1076.39125933 </i>
    <i name="e_0_energy">  -1077.03767166 </i>
   </energy>
  </scstep>
  <scstep>
   <time name="diag">  234.55   62.35</time>
   <time name="diis">  335.30   85.15</time>
   <time name="orth">   49.81   12.45</time>
   <time name="total">  712.97  186.80</time>
   <energy>
    <i name="e_fr_energy">  -1077.68412409 </i>
    <i name="e_wo_entrp">  -1076.39049122 </i>
    <i name="e_0_energy">  -1077.03730766 </i>
   </energy>
  </scstep>
  <scstep>
   <time name="diag">  232.76   61.89</time>
   <time name="diis">  324.84   83.54</time>
   <time name="orth">   49.66   12.42</time>
   <time name="total">  700.70  184.62</time>
   <energy>
    <i name="e_fr_energy">  -1077.68403927 </i>
    <i name="e_wo_entrp">  -1076.39090283 </i>
    <i name="e_0_energy">  -1077.03747105 </i>
   </energy>
  </scstep>
  <scstep>
   <time name="diag">  231.42   61.44</time>
   <time name="diis">  300.54   75.99</time>
   <time name="orth">   49.78   12.45</time>
   <time name="total">  675.62  177.04</time>
   <energy>
    <i name="e_fr_energy">  -1077.68405962 </i>
    <i name="e_wo_entrp">  -1076.39096715 </i>
    <i name="e_0_energy">  -1077.03751338 </i>
   </energy>
  </scstep>
  <scstep>
   <time name="diag">  230.91   61.34</time>
   <time name="diis">  298.84   76.66</time>
   <time name="orth">   49.78   12.45</time>
   <time name="total">  672.12  176.86</time>
   <energy>
    <i name="e_fr_energy">  -1077.68406095 </i>
    <i name="e_wo_entrp">  -1076.39100311 </i>
    <i name="e_0_energy">  -1077.03753203 </i>
   </energy>
  </scstep>
  <scstep>
   <time name="diag">  230.55   61.38</time>
   <time name="diis">  290.58   73.46</time>
   <time name="orth">   51.47   13.16</time>
   <time name="total">  666.36  174.71</time>
   <energy>
    <i name="e_fr_energy">  -1077.68406076 </i>
    <i name="e_wo_entrp">  -1076.39095520 </i>
    <i name="e_0_energy">  -1077.03750798 </i>
   </energy>
  </scstep>
  <scstep>
   <time name="diag">  235.28   62.63</time>
   <time name="diis">  236.82   59.38</time>
   <time name="orth">   49.72   12.43</time>
   <time name="total">  615.48  161.44</time>
   <energy>
    <i name="e_fr_energy">  -1077.68406072 </i>
    <i name="e_wo_entrp">  -1076.39095377 </i>
    <i name="e_0_energy">  -1077.03750724 </i>
   </energy>
  </scstep>
  <scstep>
   <time name="diag">  231.32   61.22</time>
   <time name="diis">  219.59   54.97</time>
   <time name="orth">   49.62   12.41</time>
   <time name="total">  528.68  138.56</time>
   <energy>
    <i name="alphaZ">   1501.22037353 </i>
    <i name="ewald">2350398.43891011 </i>
    <i name="hartreedc">**************** </i>
    <i name="XCdc">   4729.93451602 </i>
    <i name="pawpsdc"> 121327.65650319 </i>
    <i name="pawaedc">-122790.83404488 </i>
    <i name="eentropy">     -1.29312298 </i>
    <i name="bandstr"> -15937.70704611 </i>
    <i name="atom">  99353.53604020 </i>
    <i name="e_fr_energy">  -1077.68406080 </i>
    <i name="e_wo_entrp">  -1076.39093782 </i>
    <i name="e_0_energy">  -1077.03749931 </i>
   </energy>
  </scstep>
  <structure>
   <crystal>
    <varray name="basis" >
     <v>      11.10571100       0.00000000      -0.00958600 </v>
     <v>       0.00000000      15.87095000       0.00000000 </v>
     <v>       0.00000000       0.00000000      55.52857600 </v>
    </varray>
    <i name="volume">   9787.36596561 </i>
    <varray name="rec_basis" >
     <v>       0.09004376       0.00000000       0.00000000 </v>
     <v>       0.00000000       0.06300820       0.00000000 </v>
     <v>       0.00001554       0.00000000       0.01800875 </v>
    </varray>
   </crystal>
   <varray name="positions" >
    <v>       0.12533700       0.24770700       0.42255300 </v>
    <v>       0.12533900       0.74771100       0.42255400 </v>
    <v>       0.62533600       0.24770600       0.42255200 </v>
    <v>       0.62533900       0.74771000       0.42255400 </v>
    <v>       0.37481100       0.00166700       0.47540500 </v>
    <v>       0.37480700       0.50167600       0.47540200 </v>
    <v>       0.87480000       0.00165700       0.47541200 </v>
    <v>       0.87479900       0.50165900       0.47540700 </v>
    <v>       0.12523400       0.25174800       0.52449500 </v>
    <v>       0.12522000       0.75178300       0.52449900 </v>
    <v>       0.62523700       0.25176400       0.52448900 </v>
    <v>       0.62524600       0.75180100       0.52450100 </v>
    <v>       0.37416900       0.99853700       0.57755100 </v>
    <v>       0.37463300       0.49946400       0.57734100 </v>
    <v>       0.87407700       0.99846100       0.57749700 </v>
    <v>       0.87429100       0.49933900       0.57730000 </v>
    <v>       0.37480100       0.25003300       0.47523700 </v>
    <v>       0.37480700       0.75005900       0.47524300 </v>
    <v>       0.87480800       0.25005400       0.47524400 </v>
    <v>       0.87480300       0.75006400       0.47524500 </v>
    <v>       0.12497600       0.49971300       0.42744300 </v>
    <v>       0.12498100       0.99971200       0.42744400 </v>
    <v>       0.62498200       0.49971500       0.42744300 </v>
    <v>       0.62497600       0.99971400       0.42744400 </v>
    <v>       0.37483400       0.24905600       0.57375200 </v>
    <v>       0.37487200       0.74916100       0.57382600 </v>
    <v>       0.87457400       0.24907400       0.57377600 </v>
    <v>       0.87461800       0.74921500       0.57374700 </v>
    <v>       0.12518900       0.99997800       0.52468800 </v>
    <v>       0.12519800       0.50001000       0.52467100 </v>
    <v>       0.62524400       0.99995600       0.52469000 </v>
    <v>       0.62524400       0.49997300       0.52468400 </v>
    <v>       0.36592200       0.37496300       0.42608100 </v>
    <v>       0.36591800       0.87496300       0.42607900 </v>
    <v>       0.86592500       0.37496300       0.42608000 </v>
    <v>       0.86591700       0.87496400       0.42607800 </v>
    <v>       0.38410000       0.12485200       0.42605900 </v>
    <v>       0.38408200       0.62485600       0.42606100 </v>
    <v>       0.88408300       0.12485400       0.42606200 </v>
    <v>       0.88408400       0.62485400       0.42606000 </v>
    <v>       0.12871500       0.12561600       0.47413500 </v>
    <v>       0.12871400       0.62562800       0.47413100 </v>
    <v>       0.62872500       0.12562100       0.47413100 </v>
    <v>       0.62873500       0.62562800       0.47412800 </v>
    <v>       0.11992300       0.37477600       0.47381600 </v>
    <v>       0.11989400       0.87478200       0.47381100 </v>
    <v>       0.61991200       0.37477800       0.47381700 </v>
    <v>       0.61991100       0.87478000       0.47381300 </v>
    <v>       0.37090900       0.37565300       0.52625300 </v>
    <v>       0.37105500       0.87555400       0.52626400 </v>
    <v>       0.87102200       0.37556700       0.52625400 </v>
    <v>       0.87105000       0.87558500       0.52624900 </v>
    <v>       0.38010900       0.12478500       0.52638700 </v>
    <v>       0.38023000       0.62478600       0.52636700 </v>
    <v>       0.88052100       0.12476700       0.52638600 </v>
    <v>       0.88046300       0.62477400       0.52637900 </v>
    <v>       0.12951200       0.12508600       0.57467600 </v>
    <v>       0.12995300       0.62478100       0.57456600 </v>
    <v>       0.62833400       0.12500500       0.57391100 </v>
    <v>       0.62832600       0.62486400       0.57392100 </v>
    <v>       0.12117600       0.37493000       0.57499000 </v>
    <v>       0.12082200       0.87475800       0.57494000 </v>
    <v>       0.62106900       0.37493900       0.57504400 </v>
    <v>       0.62087600       0.87473300       0.57497700 </v>
    <v>       0.34270600       0.87357900       0.60935800 </v>
    <v>       0.45912700       0.99704200       0.63164000 </v>
    <v>       0.57964900       0.12518800       0.60799600 </v>
    <v>       0.33699800       0.37316200       0.60609400 </v>
    <v>       0.45951600       0.49706100       0.63163800 </v>
    <v>       0.57968700       0.62521400       0.60799900 </v>
    <v>       0.84228100       0.87364900       0.60934800 </v>
    <v>       0.95946500       0.99721700       0.63170500 </v>
    <v>       0.06964800       0.12304700       0.61032100 </v>
    <v>       0.83642300       0.37323800       0.60604300 </v>
    <v>       0.95958700       0.49718600       0.63172800 </v>
    <v>       0.06975900       0.62313100       0.61031800 </v>
    <v>       0.46344800       0.25018600       0.62685800 </v>
    <v>       0.46257900       0.75033400       0.62698100 </v>
    <v>       0.96308400       0.24983100       0.62710500 </v>
    <v>       0.96297300       0.75024400       0.62703400 </v>
    <v>       0.12503200       0.25043700       0.47463600 </v>
    <v>       0.12504500       0.75039700       0.47464100 </v>
    <v>       0.62504900       0.25034900       0.47464500 </v>
    <v>       0.62504300       0.75035200       0.47464700 </v>
    <v>       0.37509500       0.24935300       0.42519800 </v>
    <v>       0.37509500       0.74935000       0.42519800 </v>
    <v>       0.87509600       0.24934100       0.42519900 </v>
    <v>       0.87509700       0.74934000       0.42519900 </v>
    <v>       0.01476200       0.12492800       0.45139100 </v>
    <v>       0.01488000       0.62495300       0.45140500 </v>
    <v>       0.51480500       0.12492800       0.45139600 </v>
    <v>       0.51475000       0.62492900       0.45139200 </v>
    <v>       0.48513200       0.12486500       0.40328000 </v>
    <v>       0.48495000       0.62486900       0.40325000 </v>
    <v>       0.98476300       0.12481700       0.40320800 </v>
    <v>       0.98513800       0.62483600       0.40327100 </v>
    <v>       0.49299000       0.37496300       0.44585100 </v>
    <v>       0.49309700       0.87495800       0.44583600 </v>
    <v>       0.99297800       0.37496400       0.44585200 </v>
    <v>       0.99309500       0.87495700       0.44583800 </v>
    <v>       0.01476700       0.37502000       0.49682900 </v>
    <v>       0.01471100       0.87502200       0.49683800 </v>
    <v>       0.51486500       0.37497200       0.49682800 </v>
    <v>       0.51488400       0.87502100       0.49681500 </v>
    <v>       0.37498100       0.00032600       0.42469800 </v>
    <v>       0.37498200       0.50032000       0.42470000 </v>
    <v>       0.87498300       0.00032900       0.42469800 </v>
    <v>       0.87498000       0.50033000       0.42469900 </v>
    <v>       0.12500300       0.50016400       0.47466500 </v>
    <v>       0.12501700       0.00019400       0.47466400 </v>
    <v>       0.62501000       0.50023200       0.47466600 </v>
    <v>       0.62501200       0.00022700       0.47466500 </v>
    <v>       0.26547200       0.37512900       0.40328600 </v>
    <v>       0.26534700       0.87511400       0.40331900 </v>
    <v>       0.76530000       0.37510200       0.40333100 </v>
    <v>       0.76530500       0.87509900       0.40333300 </v>
    <v>       0.23489200       0.37489600       0.45135400 </v>
    <v>       0.23491700       0.87489600       0.45135000 </v>
    <v>       0.73509400       0.37489800       0.45131500 </v>
    <v>       0.73502900       0.87489500       0.45132700 </v>
    <v>       0.23534600       0.12496700       0.49698200 </v>
    <v>       0.23537000       0.62497200       0.49698900 </v>
    <v>       0.73538100       0.12496700       0.49698300 </v>
    <v>       0.73531300       0.62497100       0.49697100 </v>
    <v>       0.25728900       0.12430800       0.44631800 </v>
    <v>       0.25730700       0.62429500       0.44631800 </v>
    <v>       0.75732400       0.12437800       0.44630900 </v>
    <v>       0.75733900       0.62428100       0.44631400 </v>
    <v>       0.12450000       0.25082200       0.57492300 </v>
    <v>       0.12487000       0.75041100       0.57499000 </v>
    <v>       0.62507000       0.25105100       0.57477100 </v>
    <v>       0.62563700       0.74949500       0.57475300 </v>
    <v>       0.37532300       0.25090400       0.52530600 </v>
    <v>       0.37530200       0.75089300       0.52530700 </v>
    <v>       0.87529200       0.25065600       0.52529300 </v>
    <v>       0.87529100       0.75072900       0.52530100 </v>
    <v>       0.00783600       0.12520300       0.55259000 </v>
    <v>       0.00786300       0.62524400       0.55262100 </v>
    <v>       0.50762600       0.12565000       0.55262400 </v>
    <v>       0.50767100       0.62576400       0.55260600 </v>
    <v>       0.48276000       0.12496600       0.50327700 </v>
    <v>       0.48285200       0.62498800       0.50326300 </v>
    <v>       0.98242800       0.12492200       0.50330800 </v>
    <v>       0.98248300       0.62494000       0.50330400 </v>
    <v>       0.48450400       0.37504600       0.54831400 </v>
    <v>       0.48665700       0.87493000       0.54834500 </v>
    <v>       0.98584300       0.37497200       0.54833000 </v>
    <v>       0.98710400       0.87489800       0.54829000 </v>
    <v>       0.01904400       0.37417500       0.59719800 </v>
    <v>       0.01680900       0.87444800       0.59644500 </v>
    <v>       0.51845900       0.37432000       0.59715600 </v>
    <v>       0.51608500       0.87473500       0.59636600 </v>
    <v>       0.37518600       0.00057600       0.52535300 </v>
    <v>       0.37520200       0.50057600       0.52534800 </v>
    <v>       0.87514800       0.00064600       0.52535300 </v>
    <v>       0.87524400       0.50069900       0.52535900 </v>
    <v>       0.12469300       0.49884900       0.57437500 </v>
    <v>       0.12524600       0.00063500       0.57430500 </v>
    <v>       0.62486100       0.49920000       0.57428600 </v>
    <v>       0.62509700       0.00114200       0.57419100 </v>
    <v>       0.26830500       0.37490600       0.50359200 </v>
    <v>       0.26741500       0.87498900       0.50341600 </v>
    <v>       0.76668300       0.37500500       0.50324600 </v>
    <v>       0.76718600       0.87493900       0.50336200 </v>
    <v>       0.24186100       0.37418300       0.55200600 </v>
    <v>       0.24212100       0.87426400       0.55273800 </v>
    <v>       0.74228300       0.37454300       0.55194900 </v>
    <v>       0.74234600       0.87397200       0.55262600 </v>
    <v>       0.23092200       0.12588500       0.59620100 </v>
    <v>       0.23095000       0.62579300       0.59622000 </v>
    <v>       0.73065000       0.12575300       0.59607200 </v>
    <v>       0.73066700       0.62577200       0.59607800 </v>
    <v>       0.26279300       0.12487200       0.54845700 </v>
    <v>       0.26255100       0.62488100       0.54851900 </v>
    <v>       0.76617200       0.12487600       0.54814500 </v>
    <v>       0.76619300       0.62487500       0.54813600 </v>
    <v>       0.26902500       0.86889800       0.60179900 </v>
    <v>       0.37855800       0.00134100       0.62583700 </v>
    <v>       0.50378400       0.12396700       0.59853300 </v>
    <v>       0.26201800       0.37576800       0.59961900 </v>
    <v>       0.37873800       0.50156500       0.62579500 </v>
    <v>       0.50409900       0.62395200       0.59851900 </v>
    <v>       0.76876700       0.86871700       0.60193300 </v>
    <v>       0.87856500       0.00168300       0.62564500 </v>
    <v>       0.99714800       0.11865200       0.60242600 </v>
    <v>       0.76142100       0.37673700       0.59958500 </v>
    <v>       0.87824200       0.50153600       0.62549200 </v>
    <v>       0.99724100       0.61890100       0.60242800 </v>
    <v>       0.37841500       0.24893300       0.62053700 </v>
    <v>       0.37690400       0.75030400       0.62034500 </v>
    <v>       0.88031700       0.24987400       0.62011600 </v>
    <v>       0.87857500       0.74939000       0.62041700 </v>
   </varray>
  </structure>
  <varray name="forces" >
   <v>       0.10089691      -0.01538542      -0.10741353 </v>
   <v>       0.10370836      -0.01324754      -0.10711013 </v>
   <v>       0.10574595      -0.00998492      -0.10687388 </v>
   <v>       0.10290674      -0.01379879      -0.10871519 </v>
   <v>       0.09889547      -0.01078145      -0.07910486 </v>
   <v>       0.10134428      -0.01417622      -0.07855940 </v>
   <v>       0.09808275      -0.01300647      -0.07575017 </v>
   <v>       0.09410593      -0.02179118      -0.07490471 </v>
   <v>       0.09061606      -0.02241448       0.02280207 </v>
   <v>       0.09934072      -0.02080989       0.02673939 </v>
   <v>       0.11003258       0.04293415      -0.02571994 </v>
   <v>       0.11627249       0.02836364      -0.01044992 </v>
   <v>       0.08073424      -0.01225009       0.05089877 </v>
   <v>       0.08078757       0.04166587       0.01968683 </v>
   <v>       0.08040617       0.01764372       0.06837677 </v>
   <v>       0.09177170       0.08504615      -0.02501346 </v>
[...]
    <v>       0.37493892       0.74946526       0.42538442 </v>
    <v>       0.87495137       0.24940542       0.42538804 </v>
    <v>       0.87494566       0.74941373       0.42538898 </v>
    <v>       0.01281626       0.12511821       0.45127110 </v>
    <v>       0.01299895       0.62505068       0.45124501 </v>
    <v>       0.51293928       0.12512713       0.45125219 </v>
    <v>       0.51286298       0.62511915       0.45128146 </v>
    <v>       0.48500652       0.12487060       0.40323136 </v>
    <v>       0.48473472       0.62473791       0.40319423 </v>
    <v>       0.98521826       0.12467873       0.40326099 </v>
    <v>       0.98501266       0.62486933       0.40321776 </v>
    <v>       0.49402536       0.37506718       0.44579421 </v>
    <v>       0.49444936       0.87506542       0.44571119 </v>
    <v>       0.99393004       0.37506472       0.44581867 </v>
    <v>       0.99443653       0.87506673       0.44571804 </v>
    <v>       0.01454724       0.37506367       0.49688313 </v>
    <v>       0.01407255       0.87505030       0.49689823 </v>
    <v>       0.51523793       0.37501656       0.49683149 </v>
    <v>       0.51508996       0.87501745       0.49682527 </v>
    <v>       0.37474922       0.00070894       0.42487327 </v>
    <v>       0.37476647       0.50075858       0.42486911 </v>
    <v>       0.87473614       0.00070090       0.42487258 </v>
    <v>       0.87474380       0.50069938       0.42487272 </v>
    <v>       0.12490762       0.50090612       0.47477637 </v>
    <v>       0.12480868       0.00090224       0.47477419 </v>
    <v>       0.62480617       0.50085017       0.47477026 </v>
    <v>       0.62479867       0.00083211       0.47477003 </v>
    <v>       0.26622097       0.37533782       0.40318556 </v>
    <v>       0.26637815       0.87528849       0.40312155 </v>
    <v>       0.76613253       0.37523895       0.40318881 </v>
    <v>       0.76611118       0.87524242       0.40318912 </v>
    <v>       0.23612892       0.37517844       0.45119282 </v>
    <v>       0.23629288       0.87516159       0.45115196 </v>
    <v>       0.73630997       0.37505658       0.45115795 </v>
    <v>       0.73650393       0.87496663       0.45111806 </v>
    <v>       0.23752423       0.12503792       0.49701041 </v>
    <v>       0.23742192       0.62502347       0.49698228 </v>
    <v>       0.73756078       0.12501387       0.49692853 </v>
    <v>       0.73758708       0.62500677       0.49708563 </v>
    <v>       0.25714013       0.12458809       0.44636117 </v>
    <v>       0.25712175       0.62462165       0.44635425 </v>
    <v>       0.75712895       0.12464045       0.44635540 </v>
    <v>       0.75709511       0.62464781       0.44635022 </v>
    <v>       0.12408167       0.25040510       0.57458014 </v>
    <v>       0.12439128       0.75108378       0.57464625 </v>
    <v>       0.62496530       0.24968792       0.57449328 </v>
    <v>       0.62461235       0.74960132       0.57453981 </v>
    <v>       0.37507270       0.24975915       0.52515259 </v>
    <v>       0.37503904       0.74988554       0.52514821 </v>
    <v>       0.87496994       0.25059610       0.52516190 </v>
    <v>       0.87495035       0.75040350       0.52515369 </v>
    <v>       0.00748222       0.12560029       0.55284562 </v>
    <v>       0.00768744       0.62558099       0.55284425 </v>
    <v>       0.50723500       0.12609631       0.55244399 </v>
    <v>       0.50727346       0.62638730       0.55234606 </v>
    <v>       0.48280505       0.12502457       0.50288119 </v>
    <v>       0.48278185       0.62507632       0.50286771 </v>
    <v>       0.98378133       0.12488431       0.50285495 </v>
    <v>       0.98361905       0.62497781       0.50284296 </v>
    <v>       0.48315670       0.37493508       0.54889207 </v>
    <v>       0.48509339       0.87477717       0.54852376 </v>
    <v>       0.98414720       0.37499254       0.54854280 </v>
    <v>       0.98523302       0.87462140       0.54855643 </v>
    <v>       0.01875015       0.37462437       0.59704437 </v>
    <v>       0.01628064       0.87451408       0.59644763 </v>
    <v>       0.51779307       0.37454193       0.59659779 </v>
    <v>       0.51695561       0.87421822       0.59655051 </v>
    <v>       0.37495506       0.00049007       0.52512984 </v>
    <v>       0.37494144       0.50055661       0.52511002 </v>
    <v>       0.87505186       0.00046922       0.52511792 </v>
    <v>       0.87502235       0.50052772       0.52510009 </v>
    <v>       0.12446379       0.49933454       0.57420216 </v>
    <v>       0.12608355       0.00029819       0.57430380 </v>
    <v>       0.62476603       0.49958995       0.57428079 </v>
    <v>       0.62549978       0.00157077       0.57421122 </v>
    <v>       0.26584015       0.37453579       0.50277081 </v>
    <v>       0.26613887       0.87502818       0.50302142 </v>
    <v>       0.76710955       0.37506203       0.50304211 </v>
    <v>       0.76713458       0.87497182       0.50308944 </v>
    <v>       0.24163824       0.37419056       0.55188626 </v>
    <v>       0.24195078       0.87392702       0.55274588 </v>
    <v>       0.74135089       0.37557233       0.55139085 </v>
    <v>       0.74178992       0.87283410       0.55247249 </v>
    <v>       0.23221188       0.12529848       0.59630013 </v>
    <v>       0.23181639       0.62554817       0.59629933 </v>
    <v>       0.73143468       0.12553550       0.59588752 </v>
    <v>       0.73157685       0.62554838       0.59586905 </v>
    <v>       0.26463477       0.12452481       0.54852606 </v>
    <v>       0.26447940       0.62436160       0.54852062 </v>
    <v>       0.76333719       0.12500396       0.54810430 </v>
    <v>       0.76339173       0.62498012       0.54814155 </v>
    <v>       0.26528555       0.86652169       0.60196751 </v>
    <v>       0.37504843       0.00143769       0.62588511 </v>
    <v>       0.50774939       0.12569029       0.59873819 </v>
    <v>       0.25621533       0.37651187       0.59875991 </v>
    <v>       0.37526561       0.50194380       0.62613043 </v>
    <v>       0.50798813       0.62579857       0.59871164 </v>
    <v>       0.76436332       0.86622379       0.60180975 </v>
    <v>       0.87930826       0.00127208       0.62538445 </v>
    <v>       0.99085381       0.12025071       0.60201870 </v>
    <v>       0.75773429       0.37816276       0.59899989 </v>
    <v>       0.87967542       0.50152784       0.62510884 </v>
    <v>       0.99133872       0.62023695       0.60203501 </v>
    <v>       0.38013516       0.24829583       0.62070107 </v>
    <v>       0.37849301       0.74914700       0.62092562 </v>
    <v>       0.88132160       0.24925299       0.62018112 </v>
    <v>       0.87905626       0.74878741       0.62069413 </v>
   </varray>
  </structure>
  <varray name="forces" >
   <v>      -0.12042566       0.08566122       0.02542314 </v>
   <v>      -0.12011018       0.08315783       0.01516096 </v>
   <v>      -0.12169367       0.08065812       0.02317784 </v>
   <v>      -0.12279314       0.08279955       0.01630367 </v>
   <v>      -0.12880919       0.08129072       0.06632263 </v>
   <v>      -0.14038236       0.06165459       0.06852047 </v>
   <v>      -0.13147086       0.06981470       0.05258860 </v>
   <v>      -0.13335126       0.06983562       0.05649272 </v>
   <v>      -0.11097396       0.12512300       0.01901768 </v>
   <v>      -0.11365267       0.09521110       0.02183314 </v>
   <v>      -0.13504044       0.06586801       0.03679951 </v>
   <v>      -0.12667118       0.04151247       0.01553007 </v>
   <v>      -0.07732742       0.09394791       0.27403622 </v>
   <v>      -0.08291005       0.27263807       0.23018657 </v>
   <v>      -0.20757544      -0.01917508       0.13085887 </v>
   <v>      -0.21123015       0.12136685       0.00824585 </v>
   <v>      -0.14317266       0.06229294       0.08255326 </v>
   <v>      -0.13460755       0.04802197       0.07173747 </v>
   <v>      -0.13329825       0.06194676       0.06044799 </v>
   <v>      -0.13627354       0.06601151       0.06697853 </v>
   <v>      -0.12105213       0.07637378       0.02704928 </v>
   <v>      -0.12262889       0.07356313       0.02421093 </v>
   <v>      -0.12261245       0.06886655       0.02891139 </v>
   <v>      -0.11865493       0.07472883       0.02420425 </v>
   <v>      -0.13112197      -0.08431786       0.74532713 </v>
   <v>      -0.11564554      -0.02737693       0.78578516 </v>
   <v>      -0.18720421      -0.01160626       0.60818124 </v>
   <v>      -0.18082424      -0.01760556       0.70626318 </v>
   <v>      -0.10773773       0.03725911       0.02039612 </v>
   <v>      -0.10075887      -0.00360279       0.01801553 </v>
   <v>      -0.11567680       0.08505534       0.03947279 </v>
   <v>      -0.09840158       0.05912825       0.03880379 </v>
   <v>      -0.04265269       0.07532194       0.03502900 </v>
   <v>      -0.05806530       0.07541709      -0.02968569 </v>
   <v>      -0.06829471       0.07324058       0.01297807 </v>
   <v>      -0.06209620       0.07340708      -0.01153212 </v>
   <v>       0.06763275       0.08571869      -0.09625997 </v>
   <v>      -0.06179465       0.08330013      -0.01548000 </v>
   <v>      -0.22380859       0.07943244       0.11117134 </v>
   <v>       0.01004670       0.08601340      -0.07224824 </v>
   <v>      -0.06178404       0.07974356       0.21047496 </v>
   <v>      -0.05907406       0.06848614       0.18722161 </v>
   <v>      -0.07876685       0.07613998       0.18067581 </v>
   <v>      -0.04642059       0.08279200       0.24351103 </v>
   <v>       0.13534579       0.10164628      -0.02349994 </v>
   <v>       0.06763175       0.10333119      -0.05979553 </v>
   <v>       0.18965229       0.10769219      -0.24093565 </v>
   <v>       0.19136961       0.10401188      -0.24771666 </v>
   <v>      -1.10723300      -0.04238789      -0.46938587 </v>
   <v>      -0.93870452      -0.00328616      -0.34716180 </v>
   <v>      -0.72519977       0.01766529      -0.18550972 </v>
   <v>      -0.83922995      -0.01353451      -0.29472807 </v>
   <v>       0.51628112       0.06511915      -0.73492613 </v>
   <v>       0.27934702       0.05502209      -0.49796273 </v>
   <v>      -0.31261765       0.07322059       0.12005250 </v>
   <v>      -0.31805945       0.07162282       0.09577271 </v>
   <v>       0.39009132       0.08904676       0.64789044 </v>
   <v>       0.19711451       0.07690591       0.54175108 </v>
   <v>       0.24762560       0.06012183       0.14889787 </v>
   <v>       0.20064206       0.09309652       0.17576364 </v>
   <v>       0.64664546      -0.05777537       0.37468092 </v>
   <v>       0.42754510      -0.15013582       0.35647553 </v>
   <v>       0.94217101      -0.04319438       0.03763111 </v>
   <v>       0.59550983      -0.15588411       0.30797849 </v>
   <v>      -1.59050620       0.05651502      -0.77204013 </v>
   <v>      -0.37735239       0.21115995      -0.37758795 </v>
   <v>       0.87285669       0.41651307       1.97941284 </v>
   <v>      -2.16674123      -0.29842081      -0.67999027 </v>
   <v>      -1.93271009      -0.15434129      -0.26203441 </v>
   <v>       1.06372103       0.39165760       1.99913348 </v>
   <v>      -1.87727967       0.05048802      -1.02198680 </v>
   <v>      -0.89886383      -0.20488550       0.04634571 </v>
   <v>      -2.04928985      -0.24228116      -0.33387591 </v>
   <v>      -1.89654502      -0.29975489      -0.61530725 </v>
   <v>      -0.88753527      -0.30270599       0.11881472 </v>
   <v>      -1.88713913      -0.10882270      -0.33397322 </v>
   <v>       0.89281746       0.21687561       0.14441715 </v>
   <v>       1.61738110       0.32643270       0.31652475 </v>
   <v>       0.51929053       0.24002768      -0.23975459 </v>
   <v>       0.68544477       0.41113042       0.07588946 </v>
   <v>      -0.00775172       0.10351372      -0.04876058 </v>
   <v>       0.12948390       0.03309323      -0.12131152 </v>
   <v>       0.28581080      -0.96449507      -0.04811619 </v>
   <v>       0.28736370      -0.86350920      -0.05238957 </v>
   <v>      -0.06149409       0.22474850      -0.17616888 </v>
   <v>      -0.06023613       0.10683162      -0.19571120 </v>
   <v>      -0.05011761       0.35825527      -0.14091242 </v>
   <v>      -0.04919183       0.30935724      -0.14456774 </v>
   <v>      -0.10505912      -0.25910710       0.37792221 </v>
   <v>       0.09303984      -0.10450947       0.45625458 </v>
   <v>       0.02341586      -0.33793230       0.45123250 </v>
   <v>       0.01410733      -0.23864874       0.44143707 </v>
   <v>       0.61807569      -0.01720830       0.22429676 </v>
   <v>       1.28842206      -0.30469819      -0.01797205 </v>
   <v>      -0.13365865       0.58124982      -0.09412959 </v>
   <v>       0.66822984      -0.03989010       0.14160478 </v>
   <v>      -0.17713481       0.52676802       0.29687236 </v>
   <v>       0.57377152       0.24934787      -0.30647901 </v>
   <v>      -0.57227535       0.55439352       0.74061991 </v>
   <v>       0.61160462       0.26514925      -0.30944183 </v>
   <v>       0.65893636       0.00815495      -0.28726205 </v>
   <v>       0.73825598       0.12820495      -0.97733957 </v>
   <v>      -2.12074652       0.14414242       0.55537673 </v>
   <v>      -1.72980255       0.14006769       0.38131169 </v>
   <v>      -0.17108628      -0.49902298      -0.23971693 </v>
   <v>      -0.13249693      -0.77458460      -0.16987726 </v>
   <v>      -0.16573352      -0.46740467      -0.24226340 </v>
   <v>      -0.16786604      -0.45664772      -0.25006453 </v>
   <v>      -0.07085339      -1.96807483       0.05891710 </v>
   <v>       0.04708846      -1.92182483       0.06286562 </v>
   <v>       0.09928222      -1.74608152       0.07222108 </v>
   <v>       0.11792935      -1.70909521       0.05113566 </v>
   <v>       0.48941586       0.92688504       0.25608800 </v>
   <v>       0.73291371       0.34108071      -0.46946010 </v>
   <v>       0.53887373       1.01991467       0.24630096 </v>
   <v>       0.48718317       1.04668246       0.25376038 </v>
   <v>      -0.23480066      -0.02754969       0.09800548 </v>
   <v>      -0.60183952      -0.21521266       0.14680038 </v>
   <v>      -0.52317842      -0.02590346       0.17097459 </v>
   <v>      -0.78862038       0.13832207       0.12464447 </v>
   <v>       0.33905760       0.07835161      -3.04299097 </v>
   <v>       0.19073957       0.12471364      -2.64291615 </v>
   <v>       0.03625389       0.12565719      -1.65013798 </v>
   <v>       0.68095328       0.11940177      -3.93925472 </v>
   <v>      -0.18444594      -0.09451300       0.06498658 </v>
   <v>      -0.13942655      -0.16352398       0.02329871 </v>
   <v>      -0.12438913      -0.22359606      -0.01952784 </v>
   <v>      -0.12656997      -0.22929149       0.00998833 </v>
   <v>       0.34675288      -0.50676140      -0.40921430 </v>
   <v>       0.30644557      -1.60548381      -0.44806521 </v>
   <v>      -0.18249574      -0.61740587       0.52294647 </v>
   <v>      -0.41019719      -0.08493417      -0.02766649 </v>
   <v>      -0.02734742      -0.41877619       0.31739679 </v>
   <v>      -0.05157215      -0.23139243       0.19075360 </v>
   <v>       0.03538844      -0.20718449       0.29432203 </v>
   <v>       0.03174232       0.34578729       0.38125765 </v>
   <v>       0.08376083      -0.42213839      -0.32639956 </v>
   <v>      -0.01629899      -0.34956417      -0.28149160 </v>
   <v>       0.56430436       0.50879891      -0.39014830 </v>
   <v>       0.51359336       0.62070720      -0.59337959 </v>
   <v>       1.41183021       0.13662596       0.11528413 </v>
   <v>       1.29816474       0.23627050      -0.08849627 </v>
   <v>       0.49702230       0.19608154       0.60296820 </v>
   <v>       0.72233499       0.09136277       0.59568843 </v>
   <v>       0.89245225      -0.13366247      -0.00367877 </v>
   <v>       0.24277265       0.69200693      -0.00947729 </v>
   <v>       0.99238700       0.04867433       1.48576323 </v>
   <v>      -0.23894863       1.02196438      -0.40918054 </v>
   <v>       0.09145786       0.27836803      -1.29188643 </v>
   <v>       0.37740968      -0.02424659      -0.22059566 </v>
   <v>      -0.66957795      -0.43097251       0.68014962 </v>
   <v>       0.24830970       1.12106849      -0.61321182 </v>
   <v>      -0.05737116       0.14944528       0.57404575 </v>
   <v>      -0.07416928       0.06617377       0.47608823 </v>
   <v>      -0.01125701       0.24035625       0.56531478 </v>
   <v>       0.01321286       0.23473720       0.44372010 </v>
   <v>      -0.49137229       0.24729096       0.48946839 </v>
   <v>       0.45925482      -0.38807865       0.25626441 </v>
   <v>      -0.31286461      -0.22819007      -0.35907021 </v>
   <v>       0.24034934       0.00505288      -0.48734291 </v>
   <v>       0.25349144       0.02351166       0.29569432 </v>
   <v>      -0.10702709       0.04261522      -1.32956019 </v>
   <v>      -1.31210212       0.11899506       0.27826483 </v>
   <v>      -0.90273496       0.09050541      -0.11952634 </v>
   <v>       0.38972932       0.46876189      -0.46076490 </v>
   <v>      -0.06401863      -0.35400872      -0.18674373 </v>
   <v>      -0.23266917      -1.10493866      -0.45847517 </v>
   <v>      -0.21420711       0.17050811      -0.69804691 </v>
   <v>      -0.42051113       0.74183036      -0.62099989 </v>
   <v>      -0.36127614       0.32068335      -0.58963846 </v>
   <v>      -0.10603937      -0.32537252       0.37798627 </v>
   <v>      -0.33453065      -0.10442485       0.54709190 </v>
   <v>      -0.15725071       0.98234018      -0.26469834 </v>
   <v>      -0.59644551       0.86603862      -0.13287875 </v>
   <v>       1.04985428       0.07006228       3.69191419 </v>
   <v>       1.07635167      -0.02141196       4.00926248 </v>
   <v>       3.39977366       0.06640125      -0.23027859 </v>
   <v>       0.69810736       0.80683358       0.33075593 </v>
   <v>      -0.79675092      -0.67365290      -0.44054396 </v>
   <v>       1.45918818      -1.73623872       1.77593525 </v>
   <v>       1.73584546       0.78956881      -0.27347347 </v>
   <v>      -0.63837283      -1.04379298      -0.56578129 </v>
   <v>       3.26834873       0.02204899      -0.89159015 </v>
   <v>      -0.67424730       0.62888320       0.21991112 </v>
   <v>       1.66719615       0.32906819       1.17043513 </v>
   <v>       0.23772673       0.77228700       0.25591243 </v>
   <v>      -0.16570803       1.30215810       0.11926560 </v>
   <v>       2.30547508       0.91445675       1.85559198 </v>
   <v>      -0.47252772      -0.70640166      -1.24275282 </v>
   <v>      -2.47158424      -0.80397189      -1.92930831 </v>
   <v>      -1.47144211      -0.72230345      -0.82797862 </v>
   <v>      -0.15285916      -0.70599173      -0.73120383 </v>
  </varray>
  <energy>
   <i name="e_fr_energy">  -1078.35663260 </i>
   <i name="e_wo_entrp">  -1077.01089328 </i>
   <i name="e_0_energy">  -1077.68376294 </i>
  </energy>
  <time name="totalsc">41446.5310885.81</time>
 </calculation>
 <calculation>
  <scstep>
   <time name="dav"> 1273.07  321.90</time>
   <time name="total"> 1368.66  349.43</time>
   <energy>
    <i name="alphaZ">   1501.22037353 </i>
    <i name="ewald">2350459.06840071 </i>
    <i name="hartreedc">**************** </i>
    <i name="XCdc">   4727.55603251 </i>
    <i name="pawpsdc"> 120980.28973991 </i>
    <i name="pawaedc">-122442.48787339 </i>
    <i name="eentropy">     -1.32591731 </i>
    <i name="bandstr"> -15923.08110407 </i>
    <i name="atom">  99353.53604020 </i>
    <i name="e_fr_energy">  -1078.77706494 </i>
    <i name="e_wo_entrp">  -1077.45114762 </i>
    <i name="e_0_energy">  -1078.11410628 </i>
   </energy>
  </scstep>
  <scstep>
   <time name="diag">  232.65   61.83</time>
